 Title = "Wing and Wake"
 VARIABLES = "X" "Y" "Z" "GAM"
 Zone I=   26 J=   25 K=1  T="Blade"
 DATAPACKING=BLOCK
 VARLOCATION=([4]=CELLCENTERED)
  0.121040498346472       0.120189799827032       0.119339101307592     
  0.118488402788152       0.117637704268712       0.116787005749271     
  0.115936307229831       0.115085608710391       0.114234910190951     
  0.113384211671511       0.112533513152071       0.111682814632631     
  0.110832116113191       0.109981417593751       0.109130719074311     
  0.108280020554870       0.107429322035430       0.106578623515990     
  0.105727924996550       0.104877226477110       0.104026527957670     
  0.103175829438230       0.102325130918790       0.101474432399350     
  0.100623733879909       9.977303536046929E-002  0.122464605540827     
  0.121613907021387       0.120763208501946       0.119912509982506     
  0.119061811463066       0.118211112943626       0.117360414424186     
  0.116509715904746       0.115659017385306       0.114808318865866     
  0.113957620346426       0.113106921826985       0.112256223307545     
  0.111405524788105       0.110554826268665       0.109704127749225     
  0.108853429229785       0.108002730710345       0.107152032190905     
  0.106301333671465       0.105450635152025       0.104599936632584     
  0.103749238113144       0.102898539593704       0.102047841074264     
  0.101197142554824       0.126712560254958       0.125861861735518     
  0.125011163216078       0.124160464696638       0.123309766177197     
  0.122459067657757       0.121608369138317       0.120757670618877     
  0.119906972099437       0.119056273579997       0.118205575060557     
  0.117354876541117       0.116504178021676       0.115653479502236     
  0.114802780982796       0.113952082463356       0.113101383943916     
  0.112250685424476       0.111399986905036       0.110549288385596     
  0.109698589866156       0.108847891346715       0.107997192827275     
  0.107146494307835       0.106295795788395       0.105445097268955     
  0.133711678805951       0.132860980286511       0.132010281767071     
  0.131159583247631       0.130308884728191       0.129458186208751     
  0.128607487689311       0.127756789169871       0.126906090650430     
  0.126055392130990       0.125204693611550       0.124353995092110     
  0.123503296572670       0.122652598053230       0.121801899533790     
  0.120951201014350       0.120100502494910       0.119249803975469     
  0.118399105456029       0.117548406936589       0.116697708417149     
  0.115847009897709       0.114996311378269       0.114145612858829     
  0.113294914339388       0.112444215819949       0.143342204334877     
  0.142491505815437       0.141640807295997       0.140790108776557     
  0.139939410257117       0.139088711737677       0.138238013218237     
  0.137387314698797       0.136536616179356       0.135685917659916     
  0.134835219140476       0.133984520621036       0.133133822101596     
  0.132283123582156       0.131432425062716       0.130581726543276     
  0.129731028023836       0.128880329504395       0.128029630984956     
  0.127178932465515       0.126328233946075       0.125477535426635     
  0.124626836907195       0.123776138387755       0.122925439868315     
  0.122074741348875       0.155439355879850       0.154588657360410     
  0.153737958840969       0.152887260321530       0.152036561802089     
  0.151185863282649       0.150335164763210       0.149484466243769     
  0.148633767724329       0.147783069204889       0.146932370685449     
  0.146081672166008       0.145230973646568       0.144380275127129     
  0.143529576607688       0.142678878088248       0.141828179568808     
  0.140977481049368       0.140126782529928       0.139276084010487     
  0.138425385491048       0.137574686971607       0.136723988452167     
  0.135873289932727       0.135022591413287       0.134171892893847     
  0.169796147823970       0.168945449304530       0.168094750785090     
  0.167244052265650       0.166393353746210       0.165542655226770     
  0.164691956707330       0.163841258187889       0.162990559668449     
  0.162139861149009       0.161289162629569       0.160438464110129     
  0.159587765590689       0.158737067071249       0.157886368551808     
  0.157035670032368       0.156184971512928       0.155334272993488     
  0.154483574474048       0.153632875954608       0.152782177435168     
  0.151931478915728       0.151080780396288       0.150230081876847     
  0.149379383357408       0.148528684837967       0.186166931476620     
  0.185316232957180       0.184465534437739       0.183614835918300     
  0.182764137398859       0.181913438879419       0.181062740359979     
  0.180212041840539       0.179361343321099       0.178510644801659     
  0.177659946282219       0.176809247762779       0.175958549243339     
  0.175107850723898       0.174257152204458       0.173406453685018     
  0.172555755165578       0.171705056646138       0.170854358126698     
  0.170003659607258       0.169152961087817       0.168302262568377     
  0.167451564048937       0.166600865529497       0.165750167010057     
  0.164899468490617       0.204271598190664       0.203420899671223     
  0.202570201151783       0.201719502632343       0.200868804112903     
  0.200018105593463       0.199167407074023       0.198316708554582     
  0.197466010035143       0.196615311515703       0.195764612996262     
  0.194913914476822       0.194063215957382       0.193212517437942     
  0.192361818918502       0.191511120399062       0.190660421879622     
  0.189809723360182       0.188959024840742       0.188108326321301     
  0.187257627801861       0.186406929282421       0.185556230762981     
  0.184705532243541       0.183854833724101       0.183004135204661     
  0.223800372099061       0.222949673579621       0.222098975060181     
  0.221248276540741       0.220397578021301       0.219546879501861     
  0.218696180982421       0.217845482462981       0.216994783943540     
  0.216144085424101       0.215293386904660       0.214442688385220     
  0.213591989865780       0.212741291346340       0.211890592826900     
  0.211039894307460       0.210189195788020       0.209338497268580     
  0.208487798749140       0.207637100229699       0.206786401710259     
  0.205935703190819       0.205085004671379       0.204234306151939     
  0.203383607632499       0.202532909113058       0.244419110465842     
  0.243568411946402       0.242717713426962       0.241867014907522     
  0.241016316388082       0.240165617868642       0.239314919349202     
  0.238464220829762       0.237613522310322       0.236762823790882     
  0.235912125271442       0.235061426752001       0.234210728232561     
  0.233360029713121       0.232509331193681       0.231658632674241     
  0.230807934154801       0.229957235635361       0.229106537115920     
  0.228255838596480       0.227405140077040       0.226554441557600     
  0.225703743038160       0.224853044518720       0.224002345999280     
  0.223151647479840       0.265775020960956       0.264924322441516     
  0.264073623922076       0.263222925402636       0.262372226883196     
  0.261521528363756       0.260670829844316       0.259820131324876     
  0.258969432805435       0.258118734285995       0.257268035766555     
  0.256417337247115       0.255566638727675       0.254715940208235     
  0.253865241688795       0.253014543169355       0.252163844649914     
  0.251313146130474       0.250462447611035       0.249611749091594     
  0.248761050572154       0.247910352052714       0.247059653533274     
  0.246208955013834       0.245358256494394       0.244507557974953     
  0.287502698034855       0.286651999515415       0.285801300995975     
  0.284950602476534       0.284099903957094       0.283249205437654     
  0.282398506918214       0.281547808398774       0.280697109879334     
  0.279846411359894       0.278995712840454       0.278145014321014     
  0.277294315801573       0.276443617282133       0.275592918762693     
  0.274742220243253       0.273891521723813       0.273040823204373     
  0.272190124684933       0.271339426165493       0.270488727646052     
  0.269638029126613       0.268787330607172       0.267936632087732     
  0.267085933568293       0.266235235048852       0.309230375108754     
  0.308379676589313       0.307528978069873       0.306678279550433     
  0.305827581030992       0.304976882511553       0.304126183992112     
  0.303275485472672       0.302424786953232       0.301574088433793     
  0.300723389914352       0.299872691394912       0.299021992875472     
  0.298171294356032       0.297320595836592       0.296469897317151     
  0.295619198797711       0.294768500278271       0.293917801758831     
  0.293067103239391       0.292216404719951       0.291365706200511     
  0.290515007681071       0.289664309161631       0.288813610642191     
  0.287962912122750       0.330586285603867       0.329735587084427     
  0.328884888564988       0.328034190045547       0.327183491526107     
  0.326332793006666       0.325482094487227       0.324631395967786     
  0.323780697448347       0.322929998928906       0.322079300409466     
  0.321228601890026       0.320377903370586       0.319527204851146     
  0.318676506331706       0.317825807812266       0.316975109292826     
  0.316124410773386       0.315273712253945       0.314423013734505     
  0.313572315215065       0.312721616695625       0.311870918176185     
  0.311020219656744       0.310169521137304       0.309318822617864     
  0.351205023970648       0.350354325451208       0.349503626931768     
  0.348652928412328       0.347802229892888       0.346951531373448     
  0.346100832854008       0.345250134334567       0.344399435815127     
  0.343548737295687       0.342698038776247       0.341847340256808     
  0.340996641737367       0.340145943217927       0.339295244698487     
  0.338444546179047       0.337593847659607       0.336743149140166     
  0.335892450620727       0.335041752101286       0.334191053581846     
  0.333340355062406       0.332489656542966       0.331638958023526     
  0.330788259504086       0.329937560984645       0.370733797879046     
  0.369883099359606       0.369032400840166       0.368181702320726     
  0.367331003801285       0.366480305281846       0.365629606762405     
  0.364778908242965       0.363928209723525       0.363077511204084     
  0.362226812684645       0.361376114165205       0.360525415645764     
  0.359674717126325       0.358824018606884       0.357973320087444     
  0.357122621568005       0.356271923048564       0.355421224529124     
  0.354570526009684       0.353719827490244       0.352869128970804     
  0.352018430451364       0.351167731931924       0.350317033412484     
  0.349466334893043       0.388838464593089       0.387987766073650     
  0.387137067554209       0.386286369034769       0.385435670515330     
  0.384584971995889       0.383734273476449       0.382883574957009     
  0.382032876437568       0.381182177918129       0.380331479398689     
  0.379480780879248       0.378630082359808       0.377779383840368     
  0.376928685320928       0.376077986801488       0.375227288282048     
  0.374376589762608       0.373525891243168       0.372675192723727     
  0.371824494204287       0.370973795684848       0.370123097165408     
  0.369272398645967       0.368421700126527       0.367571001607087     
  0.405209248245739       0.404358549726299       0.403507851206859     
  0.402657152687419       0.401806454167980       0.400955755648539     
  0.400105057129098       0.399254358609659       0.398403660090218     
  0.397552961570779       0.396702263051339       0.395851564531899     
  0.395000866012458       0.394150167493018       0.393299468973578     
  0.392448770454138       0.391598071934698       0.390747373415257     
  0.389896674895818       0.389045976376378       0.388195277856937     
  0.387344579337498       0.386493880818057       0.385643182298618     
  0.384792483779177       0.383941785259736       0.419566040189860     
  0.418715341670420       0.417864643150980       0.417013944631540     
  0.416163246112099       0.415312547592659       0.414461849073220     
  0.413611150553780       0.412760452034339       0.411909753514900     
  0.411059054995459       0.410208356476019       0.409357657956579     
  0.408506959437139       0.407656260917698       0.406805562398259     
  0.405954863878818       0.405104165359378       0.404253466839938     
  0.403402768320498       0.402552069801058       0.401701371281618     
  0.400850672762178       0.399999974242737       0.399149275723297     
  0.398298577203857       0.431663191734832       0.430812493215392     
  0.429961794695953       0.429111096176512       0.428260397657073     
  0.427409699137632       0.426559000618191       0.425708302098752     
  0.424857603579311       0.424006905059871       0.423156206540432     
  0.422305508020991       0.421454809501551       0.420604110982111     
  0.419753412462671       0.418902713943231       0.418052015423790     
  0.417201316904351       0.416350618384910       0.415499919865470     
  0.414649221346031       0.413798522826590       0.412947824307150     
  0.412097125787710       0.411246427268270       0.410395728748830     
  0.441293717263758       0.440443018744318       0.439592320224878     
  0.438741621705438       0.437890923185998       0.437040224666558     
  0.436189526147117       0.435338827627678       0.434488129108238     
  0.433637430588798       0.432786732069358       0.431936033549917     
  0.431085335030478       0.430234636511037       0.429383937991596     
  0.428533239472157       0.427682540952717       0.426831842433277     
  0.425981143913836       0.425130445394396       0.424279746874956     
  0.423429048355516       0.422578349836076       0.421727651316637     
  0.420876952797196       0.420026254277755       0.448292835814752     
  0.447442137295312       0.446591438775872       0.445740740256432     
  0.444890041736991       0.444039343217551       0.443188644698112     
  0.442337946178671       0.441487247659231       0.440636549139792     
  0.439785850620351       0.438935152100911       0.438084453581471     
  0.437233755062030       0.436383056542591       0.435532358023150     
  0.434681659503710       0.433830960984270       0.432980262464831     
  0.432129563945390       0.431278865425950       0.430428166906510     
  0.429577468387070       0.428726769867630       0.427876071348189     
  0.427025372828749       0.452540790528884       0.451690092009442     
  0.450839393490003       0.449988694970562       0.449137996451123     
  0.448287297931682       0.447436599412243       0.446585900892803     
  0.445735202373363       0.444884503853923       0.444033805334482     
  0.443183106815042       0.442332408295602       0.441481709776161     
  0.440631011256722       0.439780312737282       0.438929614217841     
  0.438078915698401       0.437228217178961       0.436377518659521     
  0.435526820140081       0.434676121620641       0.433825423101200     
  0.432974724581760       0.432124026062320       0.431273327542881     
  0.453964897723238       0.453114199203798       0.452263500684357     
  0.451412802164918       0.450562103645477       0.449711405126037     
  0.448860706606597       0.448010008087157       0.447159309567717     
  0.446308611048277       0.445457912528837       0.444607214009397     
  0.443756515489956       0.442905816970516       0.442055118451076     
  0.441204419931636       0.440353721412196       0.439503022892756     
  0.438652324373315       0.437801625853875       0.436950927334435     
  0.436100228814995       0.435249530295555       0.434398831776115     
  0.433548133256675       0.432697434737235     
 -2.057177095044887E-002 -2.203652531678102E-002 -2.350127968311322E-002
 -2.496603404944517E-002 -2.643078841577732E-002 -2.789554278210934E-002
 -2.936029714844141E-002 -3.082505151477359E-002 -3.228980588110579E-002
 -3.375456024743774E-002 -3.521931461376994E-002 -3.668406898010204E-002
 -3.814882334643419E-002 -3.961357771276616E-002 -4.107833207909826E-002
 -4.254308644543030E-002 -4.400784081176244E-002 -4.547259517809453E-002
 -4.693734954442664E-002 -4.840210391075875E-002 -4.986685827709090E-002
 -5.133161264342293E-002 -5.279636700975492E-002 -5.426112137608707E-002
 -5.572587574241909E-002 -5.719063010875131E-002 -2.139886244756813E-002
 -2.286361681390032E-002 -2.432837118023230E-002 -2.579312554656438E-002
 -2.725787991289651E-002 -2.872263427922850E-002 -3.018738864556066E-002
 -3.165214301189277E-002 -3.311689737822498E-002 -3.458165174455698E-002
 -3.604640611088897E-002 -3.751116047722118E-002 -3.897591484355322E-002
 -4.044066920988529E-002 -4.190542357621753E-002 -4.337017794254958E-002
 -4.483493230888171E-002 -4.629968667521372E-002 -4.776444104154588E-002
 -4.922919540787791E-002 -5.069394977420996E-002 -5.215870414054212E-002
 -5.362345850687422E-002 -5.508821287320624E-002 -5.655296723953823E-002
 -5.801772160587048E-002 -2.386598517409686E-002 -2.533073954042891E-002
 -2.679549390676104E-002 -2.826024827309323E-002 -2.972500263942515E-002
 -3.118975700575729E-002 -3.265451137208951E-002 -3.411926573842147E-002
 -3.558402010475355E-002 -3.704877447108568E-002 -3.851352883741777E-002
 -3.997828320374978E-002 -4.144303757008196E-002 -4.290779193641399E-002
 -4.437254630274608E-002 -4.583730066907817E-002 -4.730205503541017E-002
 -4.876680940174238E-002 -5.023156376807444E-002 -5.169631813440662E-002
 -5.316107250073866E-002 -5.462582686707075E-002 -5.609058123340276E-002
 -5.755533559973498E-002 -5.902008996606697E-002 -6.048484433239901E-002
 -2.793092597616850E-002 -2.939568034250049E-002 -3.086043470883281E-002
 -3.232518907516470E-002 -3.378994344149684E-002 -3.525469780782900E-002
 -3.671945217416109E-002 -3.818420654049329E-002 -3.964896090682529E-002
 -4.111371527315736E-002 -4.257846963948937E-002 -4.404322400582143E-002
 -4.550797837215357E-002 -4.697273273848568E-002 -4.843748710481773E-002
 -4.990224147114988E-002 -5.136699583748196E-002 -5.283175020381396E-002
 -5.429650457014613E-002 -5.576125893647823E-002 -5.722601330281020E-002
 -5.869076766914249E-002 -6.015552203547449E-002 -6.162027640180677E-002
 -6.308503076813862E-002 -6.454978513447082E-002 -3.352413258964537E-002
 -3.498888695597738E-002 -3.645364132230942E-002 -3.791839568864133E-002
 -3.938315005497365E-002 -4.084790442130561E-002 -4.231265878763768E-002
 -4.377741315396995E-002 -4.524216752030188E-002 -4.670692188663403E-002
 -4.817167625296601E-002 -4.963643061929832E-002 -5.110118498563043E-002
 -5.256593935196237E-002 -5.403069371829441E-002 -5.549544808462661E-002
 -5.696020245095865E-002 -5.842495681729075E-002 -5.988971118362291E-002
 -6.135446554995496E-002 -6.281921991628690E-002 -6.428397428261910E-002
 -6.574872864895116E-002 -6.721348301528325E-002 -6.867823738161524E-002
 -7.014299174794755E-002 -4.054990369864051E-002 -4.201465806497273E-002
 -4.347941243130470E-002 -4.494416679763674E-002 -4.640892116396893E-002
 -4.787367553030112E-002 -4.933842989663318E-002 -5.080318426296534E-002
 -5.226793862929751E-002 -5.373269299562949E-002 -5.519744736196143E-002
 -5.666220172829357E-002 -5.812695609462561E-002 -5.959171046095774E-002
 -6.105646482728966E-002 -6.252121919362179E-002 -6.398597355995399E-002
 -6.545072792628603E-002 -6.691548229261821E-002 -6.838023665895025E-002
 -6.984499102528220E-002 -7.130974539161412E-002 -7.277449975794636E-002
 -7.423925412427863E-002 -7.570400849061065E-002 -7.716876285694280E-002
 -4.888802641156775E-002 -5.035278077790000E-002 -5.181753514423203E-002
 -5.328228951056392E-002 -5.474704387689606E-002 -5.621179824322813E-002
 -5.767655260956034E-002 -5.914130697589233E-002 -6.060606134222438E-002
 -6.207081570855644E-002 -6.353557007488851E-002 -6.500032444122056E-002
 -6.646507880755269E-002 -6.792983317388473E-002 -6.939458754021695E-002
 -7.085934190654906E-002 -7.232409627288115E-002 -7.378885063921331E-002
 -7.525360500554537E-002 -7.671835937187742E-002 -7.818311373820935E-002
 -7.964786810454175E-002 -8.111262247087368E-002 -8.257737683720581E-002
 -8.404213120353798E-002 -8.550688556986991E-002 -5.839583313704430E-002
 -5.986058750337636E-002 -6.132534186970861E-002 -6.279009623604066E-002
 -6.425485060237279E-002 -6.571960496870503E-002 -6.718435933503680E-002
 -6.864911370136895E-002 -7.011386806770099E-002 -7.157862243403325E-002
 -7.304337680036530E-002 -7.450813116669747E-002 -7.597288553302949E-002
 -7.743763989936152E-002 -7.890239426569350E-002 -8.036714863202574E-002
 -8.183190299835780E-002 -8.329665736468998E-002 -8.476141173102192E-002
 -8.622616609735415E-002 -8.769092046368619E-002 -8.915567483001835E-002
 -9.062042919635034E-002 -9.208518356268237E-002 -9.354993792901460E-002
 -9.501469229534662E-002 -6.891064266593529E-002 -7.037539703226783E-002
 -7.184015139859952E-002 -7.330490576493176E-002 -7.476966013126371E-002
 -7.623441449759562E-002 -7.769916886392794E-002 -7.916392323026016E-002
 -8.062867759659245E-002 -8.209343196292423E-002 -8.355818632925648E-002
 -8.502294069558856E-002 -8.648769506192049E-002 -8.795244942825248E-002
 -8.941720379458475E-002 -9.088195816091676E-002 -9.234671252724878E-002
 -9.381146689358097E-002 -9.527622125991315E-002 -9.674097562624498E-002
 -9.820572999257733E-002 -9.967048435890956E-002 -0.101135238725241     
 -0.102599993091573      -0.104064747457905      -0.105529501824238     
 -8.025254369194568E-002 -8.171729805827782E-002 -8.318205242460988E-002
 -8.464680679094187E-002 -8.611156115727414E-002 -8.757631552360634E-002
 -8.904106988993835E-002 -9.050582425627017E-002 -9.197057862260222E-002
 -9.343533298893454E-002 -9.490008735526653E-002 -9.636484172159863E-002
 -9.782959608793076E-002 -9.929435045426276E-002 -0.100759104820595     
 -0.102223859186927      -0.103688613553259      -0.105153367919591     
 -0.106618122285923      -0.108082876652255      -0.109547631018587     
 -0.111012385384919      -0.112477139751251      -0.113941894117584     
 -0.115406648483916      -0.116871402850248      -9.222747314395087E-002
 -9.369222751028264E-002 -9.515698187661513E-002 -9.662173624294736E-002
 -9.808649060927907E-002 -9.955124497561102E-002 -0.101015999341943     
 -0.102480753708276      -0.103945508074608      -0.105410262440940     
 -0.106875016807272      -0.108339771173604      -0.109804525539936     
 -0.111269279906268      -0.112734034272600      -0.114198788638932     
 -0.115663543005265      -0.117128297371596      -0.118593051737929     
 -0.120057806104261      -0.121522560470593      -0.122987314836925     
 -0.124452069203257      -0.125916823569589      -0.127381577935921     
 -0.128846332302253      -0.104630536658950      -0.106095291025282     
 -0.107560045391614      -0.109024799757946      -0.110489554124278     
 -0.111954308490610      -0.113419062856943      -0.114883817223274     
 -0.116348571589606      -0.117813325955939      -0.119278080322271     
 -0.120742834688603      -0.122207589054935      -0.123672343421267     
 -0.125137097787599      -0.126601852153931      -0.128066606520263     
 -0.129531360886595      -0.130996115252928      -0.132460869619260     
 -0.133925623985592      -0.135390378351924      -0.136855132718256     
 -0.138319887084588      -0.139784641450920      -0.141249395817252     
 -0.117249514381422      -0.118714268747754      -0.120179023114086     
 -0.121643777480418      -0.123108531846751      -0.124573286213082     
 -0.126038040579414      -0.127502794945747      -0.128967549312078     
 -0.130432303678411      -0.131897058044743      -0.133361812411075     
 -0.134826566777407      -0.136291321143739      -0.137756075510071     
 -0.139220829876403      -0.140685584242736      -0.142150338609067     
 -0.143615092975400      -0.145079847341732      -0.146544601708063     
 -0.148009356074396      -0.149474110440728      -0.150938864807060     
 -0.152403619173392      -0.153868373539724      -0.129868492103894     
 -0.131333246470226      -0.132798000836558      -0.134262755202890     
 -0.135727509569222      -0.137192263935554      -0.138657018301887     
 -0.140121772668218      -0.141586527034551      -0.143051281400883     
 -0.144516035767215      -0.145980790133547      -0.147445544499879     
 -0.148910298866211      -0.150375053232543      -0.151839807598875     
 -0.153304561965207      -0.154769316331540      -0.156234070697871     
 -0.157698825064204      -0.159163579430536      -0.160628333796868     
 -0.162093088163200      -0.163557842529532      -0.165022596895864     
 -0.166487351262196      -0.142271555618893      -0.143736309985225     
 -0.145201064351558      -0.146665818717889      -0.148130573084221     
 -0.149595327450553      -0.151060081816885      -0.152524836183217     
 -0.153989590549550      -0.155454344915882      -0.156919099282214     
 -0.158383853648546      -0.159848608014878      -0.161313362381210     
 -0.162778116747543      -0.164242871113874      -0.165707625480206     
 -0.167172379846539      -0.168637134212871      -0.170101888579203     
 -0.171566642945535      -0.173031397311867      -0.174496151678199     
 -0.175960906044531      -0.177425660410863      -0.178890414777195     
 -0.154246485070898      -0.155711239437230      -0.157175993803562     
 -0.158640748169894      -0.160105502536226      -0.161570256902559     
 -0.163035011268891      -0.164499765635222      -0.165964520001555     
 -0.167429274367886      -0.168894028734219      -0.170358783100551     
 -0.171823537466884      -0.173288291833216      -0.174753046199548     
 -0.176217800565879      -0.177682554932212      -0.179147309298543     
 -0.180612063664876      -0.182076818031208      -0.183541572397540     
 -0.185006326763872      -0.186471081130204      -0.187935835496537     
 -0.189400589862869      -0.190865344229200      -0.165588386096908     
 -0.167053140463240      -0.168517894829573      -0.169982649195905     
 -0.171447403562236      -0.172912157928569      -0.174376912294901     
 -0.175841666661234      -0.177306421027565      -0.178771175393897     
 -0.180235929760229      -0.181700684126561      -0.183165438492893     
 -0.184630192859226      -0.186094947225557      -0.187559701591890     
 -0.189024455958222      -0.190489210324554      -0.191953964690886     
 -0.193418719057218      -0.194883473423551      -0.196348227789882     
 -0.197812982156214      -0.199277736522546      -0.200742490888879     
 -0.202207245255211      -0.176103195625799      -0.177567949992132     
 -0.179032704358464      -0.180497458724795      -0.181962213091128     
 -0.183426967457460      -0.184891721823792      -0.186356476190124     
 -0.187821230556456      -0.189285984922788      -0.190750739289120     
 -0.192215493655452      -0.193680248021784      -0.195145002388117     
 -0.196609756754449      -0.198074511120781      -0.199539265487113     
 -0.201004019853445      -0.202468774219777      -0.203933528586109     
 -0.205398282952442      -0.206863037318774      -0.208327791685106     
 -0.209792546051437      -0.211257300417769      -0.212722054784102     
 -0.185611002351276      -0.187075756717608      -0.188540511083941     
 -0.190005265450272      -0.191470019816605      -0.192934774182936     
 -0.194399528549269      -0.195864282915601      -0.197329037281932     
 -0.198793791648265      -0.200258546014597      -0.201723300380929     
 -0.203188054747262      -0.204652809113593      -0.206117563479926     
 -0.207582317846257      -0.209047072212589      -0.210511826578922     
 -0.211976580945254      -0.213441335311586      -0.214906089677918     
 -0.216370844044250      -0.217835598410582      -0.219300352776915     
 -0.220765107143246      -0.222229861509578      -0.193949125064204     
 -0.195413879430535      -0.196878633796868      -0.198343388163200     
 -0.199808142529532      -0.201272896895864      -0.202737651262196     
 -0.204202405628528      -0.205667159994860      -0.207131914361192     
 -0.208596668727524      -0.210061423093856      -0.211526177460188     
 -0.212990931826520      -0.214455686192852      -0.215920440559185     
 -0.217385194925516      -0.218849949291849      -0.220314703658181     
 -0.221779458024513      -0.223244212390845      -0.224708966757177     
 -0.226173721123509      -0.227638475489841      -0.229103229856174     
 -0.230567984222506      -0.200974896173199      -0.202439650539530     
 -0.203904404905863      -0.205369159272194      -0.206833913638527     
 -0.208298668004859      -0.209763422371191      -0.211228176737523     
 -0.212692931103855      -0.214157685470187      -0.215622439836519     
 -0.217087194202852      -0.218551948569184      -0.220016702935516     
 -0.221481457301849      -0.222946211668180      -0.224410966034512     
 -0.225875720400845      -0.227340474767176      -0.228805229133508     
 -0.230269983499840      -0.231734737866172      -0.233199492232505     
 -0.234664246598837      -0.236129000965169      -0.237593755331501     
 -0.206568102786675      -0.208032857153007      -0.209497611519339     
 -0.210962365885672      -0.212427120252004      -0.213891874618336     
 -0.215356628984668      -0.216821383351001      -0.218286137717333     
 -0.219750892083664      -0.221215646449996      -0.222680400816328     
 -0.224145155182661      -0.225609909548992      -0.227074663915324     
 -0.228539418281657      -0.230004172647989      -0.231468927014321     
 -0.232933681380653      -0.234398435746985      -0.235863190113317     
 -0.237327944479649      -0.238792698845981      -0.240257453212314     
 -0.241722207578646      -0.243186961944977      -0.210633043588747     
 -0.212097797955079      -0.213562552321412      -0.215027306687743     