 Title = "Wing and Wake"
 VARIABLES = "X" "Y" "Z" "GAM"
 Zone I=    9 J=   15 K=1  T="Blade"
 DATAPACKING=BLOCK
 VARLOCATION=([4]=CELLCENTERED)
 -0.929025846050531      -0.928859230624059      -0.928419883369745     
 -0.927739616633734      -0.926928575455123      -0.926208334908614     
 -0.925716389621283      -0.925440271653975      -0.925302724932445     
 -0.913583835888795      -0.913379642996676      -0.912841316281091     
 -0.911973926268827      -0.910893001092485      -0.909891676240786     
 -0.909187480785894      -0.908785554713866      -0.908583671342510     
 -0.898038395164309      -0.897807703560279      -0.897199639736543     
 -0.896187236131108      -0.894882304805578      -0.893636813251261     
 -0.892743688579066      -0.892228422341476      -0.891968245276878     
 -0.882403270864189      -0.882151064250947      -0.881486356391656     
 -0.880354482839987      -0.878863279114271      -0.877413559938201     
 -0.876361946574251      -0.875751469040844      -0.875442305825326     
 -0.866597467770242      -0.866328729850484      -0.865620488393052     
 -0.864407260670147      -0.862799782124666      -0.861229759491109     
 -0.860087623332140      -0.859423575335923      -0.859087045167605     
 -0.850656549029251      -0.850380448426760      -0.849652879927154     
 -0.848400789742086      -0.846734670207009      -0.845101682744227     
 -0.843911185567779      -0.843218277244434      -0.842866900156925     
 -0.834615203838984      -0.834338495467871      -0.833609294675395     
 -0.832349702889052      -0.830667781369806      -0.829014668083235     
 -0.827807448587277      -0.827104156102907      -0.826747378557073     
 -0.818508034332694      -0.818234937843678      -0.817515322430609     
 -0.816268424326054      -0.814598640814426      -0.812953654262569     
 -0.811750723876599      -0.811049393616637      -0.810693484311693     
 -0.802359675478663      -0.802092708770319      -0.801389242637771     
 -0.800167263046712      -0.798527034454923      -0.796908199318624     
 -0.795723067870863      -0.795031722381119      -0.794680779414053     
 -0.786176563916148      -0.785917828131425      -0.785236050656268     
 -0.784049321645275      -0.782453425433245      -0.780876005387318     
 -0.779720133657496      -0.779045545216896      -0.778703024186448     
 -0.769958988898499      -0.769710602545163      -0.769056139928354     
 -0.767914976199182      -0.766377981449016      -0.764856892871925     
 -0.763741481167498      -0.763090248406794      -0.762759535452428     
 -0.753705121411716      -0.753469394010535      -0.752848237114202     
 -0.751763630596494      -0.750300939901551      -0.748851897953374     
 -0.747788684891155      -0.747167719007817      -0.746852339187539     
 -0.737411071736622      -0.737190608010256      -0.736609685396689     
 -0.735594017205515      -0.734222717546479      -0.732862982856077     
 -0.731864731577123      -0.731281568902063      -0.730985325110964     
 -0.721070044521337      -0.720867831218444      -0.720335026514909     
 -0.719402639989743      -0.718142718271864      -0.716892625040839     
 -0.715974512395880      -0.715438026350975      -0.715165485536128     
 -0.704682884693379      -0.704501925927431      -0.704025070666740     
 -0.703190083404429      -0.702061127142146      -0.700940436533118     
 -0.700117153157981      -0.699636008787302      -0.699391581612418     
  0.404789425692837       0.403844502653821       0.401352840557925     
  0.397494856185500       0.392895213094281       0.388810525977112     
  0.386020565612828       0.384454622804764       0.383674556583603     
  0.411246093915290       0.410088058478523       0.407035055963410     
  0.402115842756339       0.395985611455388       0.390306816028419     
  0.386313125147627       0.384033689122506       0.382888751628854     
  0.417115602390578       0.415807285290702       0.412358783981979     
  0.406617157820368       0.399216524518032       0.392152990909553     
  0.387087829193484       0.384165609147971       0.382690071691632     
  0.422477065910908       0.421046731130433       0.417276985532677     
  0.410857811636994       0.402400775058002       0.394179009051203     
  0.388215013298962       0.384752823162472       0.382999471439009     
  0.426870561890801       0.425346473412240       0.421329836510803     
  0.414449280182833       0.405332816332424       0.396428775514339     
  0.389951399480452       0.386185396152158       0.384276838726821     
  0.430497778958076       0.428931934630785       0.424805688626440     
  0.417704732323345       0.408255698894743       0.398994566785417     
  0.392242921792316       0.388313243415471       0.386320484927251     
  0.433554873452313       0.431985582297888       0.427850079100663     
  0.420706579102638       0.411167928168513       0.401792656840612     
  0.394946174860896       0.390957604980421       0.388934218971082     
  0.436239235576852       0.434690428423690       0.430609286614432     
  0.423537776063153       0.414067963190963       0.404738780865903     
  0.397916623637687       0.393939182084820       0.391920720114246     
  0.438690001302377       0.437175957862896       0.433186403174669     
  0.426256212535947       0.416954013943320       0.407773143665863     
  0.401051929232331       0.397131114125263       0.395140817656426     
  0.440943098747057       0.439475735195068       0.435609182995192     
  0.428878908330331       0.419828131157048       0.410882137528685     
  0.404326863201534       0.400501082042633       0.398558548749816     
  0.443001320102231       0.441592651092322       0.437881009151995     
  0.431409148041525       0.422692417658064       0.414065895664777     
  0.407740081544078       0.404046757027957       0.402171190662346     
  0.444853716637026       0.443516840112313       0.439994084299013     
  0.433842975073699       0.425547643927751       0.417329718671190     
  0.411299937761047       0.407778265236277       0.405989657395255     
  0.446478228657775       0.445227916734552       0.441933340877624     
  0.436173200330257       0.428396173504718       0.420684734875531     
  0.415023370545790       0.411716090668850       0.410036008642211     
  0.447835741931865       0.446688933303482       0.443667247674914     
  0.438379420925891       0.431234049793136       0.424144418779200     
  0.418937543227474       0.415894979674543       0.414349323906190     
  0.448932200035447       0.447905931876034       0.445201551305487     
  0.440466103225128       0.434063474099694       0.427707721823303     
  0.423038649785497       0.420309944463453       0.418923729070311     
  5.806800000000000E-003  5.846700000000000E-003  5.955500000000000E-003
  5.154700000000000E-003  2.862200000000000E-003 -3.575000000000000E-004
 -3.136400000000000E-003 -4.887000000000000E-003 -5.806800000000000E-003
  6.395100000000000E-003  6.417400000000000E-003  6.480000000000000E-003
  5.547100000000000E-003  3.013300000000000E-003 -4.950000000000000E-004
 -3.507400000000000E-003 -5.401000000000000E-003 -6.395100000000000E-003
  6.406000000000000E-003  6.371700000000000E-003  6.284800000000000E-003
  5.216700000000000E-003  2.654400000000000E-003 -7.614000000000000E-004
 -3.653000000000000E-003 -5.459900000000000E-003 -6.406000000000000E-003
  6.173600000000000E-003  6.070000000000000E-003  5.799600000000000E-003
  4.603500000000000E-003  2.104300000000000E-003 -1.064900000000000E-003
 -3.694600000000000E-003 -5.323700000000000E-003 -6.173600000000000E-003
  5.700500000000000E-003  5.636900000000000E-003  5.472000000000000E-003
  4.443200000000000E-003  2.149100000000000E-003 -8.329000000000000E-004
 -3.332400000000000E-003 -4.887600000000000E-003 -5.700500000000000E-003
  5.159100000000000E-003  5.126700000000000E-003  5.043900000000000E-003
  4.172200000000000E-003  2.106600000000000E-003 -6.360000000000000E-004
 -2.954000000000000E-003 -4.401400000000000E-003 -5.159100000000000E-003
  4.585800000000000E-003  4.577700000000000E-003  4.559000000000000E-003
  3.833200000000000E-003  2.006000000000000E-003 -4.679000000000000E-004
 -2.574500000000000E-003 -3.894100000000000E-003 -4.585800000000000E-003
  4.030700000000000E-003  4.040600000000000E-003  4.069300000000000E-003
  3.471600000000000E-003  1.872800000000000E-003 -3.313000000000000E-004
 -2.220800000000000E-003 -3.407700000000000E-003 -4.030700000000000E-003
  3.545600000000000E-003  3.566200000000000E-003  3.623000000000000E-003
  3.125500000000000E-003  1.724200000000000E-003 -2.354000000000000E-004
 -1.924000000000000E-003 -2.987100000000000E-003 -3.545600000000000E-003
  3.123600000000000E-003  3.149200000000000E-003  3.218600000000000E-003
  2.797600000000000E-003  1.566100000000000E-003 -1.730000000000000E-004
 -1.677000000000000E-003 -2.625200000000000E-003 -3.123600000000000E-003
  2.748800000000000E-003  2.774900000000000E-003  2.845700000000000E-003
  2.483700000000000E-003  1.401600000000000E-003 -1.351000000000000E-004
 -1.466800000000000E-003 -2.307000000000000E-003 -2.748800000000000E-003
  2.414800000000000E-003  2.438000000000000E-003  2.500800000000000E-003
  2.183400000000000E-003  1.232800000000000E-003 -1.176000000000000E-004
 -1.288000000000000E-003 -2.026500000000000E-003 -2.414800000000000E-003
  2.085400000000000E-003  2.104900000000000E-003  2.157700000000000E-003
  1.882300000000000E-003  1.061200000000000E-003 -1.041000000000000E-004
 -1.113600000000000E-003 -1.750500000000000E-003 -2.085400000000000E-003
  1.829100000000000E-003  1.839700000000000E-003  1.868800000000000E-003
  1.612000000000000E-003  8.891000000000000E-004 -1.217000000000000E-004
 -9.927000000000000E-004 -1.541000000000000E-003 -1.829100000000000E-003
  1.626300000000000E-003  1.624800000000000E-003  1.622000000000000E-003
  1.367900000000000E-003  7.205000000000000E-004 -1.593000000000000E-004
 -9.095000000000000E-004 -1.379700000000000E-003 -1.626300000000000E-003
  6.970667624143846E-002  0.169926496276688       0.353460267335844     
  0.589692989116171       0.795212533133316       0.921026682034499     
  0.977030380130702       0.992993543025718       0.102890112771230     
  0.243230632077779       0.483500664787779       0.782477618173510     
   1.03560625549925        1.18016325328596        1.23969910511050     
   1.25640096004267       0.122991042638500       0.283589566810322     
  0.543559077384487       0.856877832650636        1.11743068583164     
   1.26292963388569        1.32128471656211        1.33762404114842     
  0.127089038226373       0.290425718271233       0.553503612895202     
  0.873725828850723        1.14448928918024        1.29736276294061     
   1.35881956367253        1.37615494266571       0.117163333208902     
  0.272739631912301       0.538572750598640       0.870998708803104     
   1.15693076547450        1.32081232157201        1.38788632529798     
   1.40716987503668       0.103624661593570       0.246549625070321     
  0.507068640069924       0.842358627542086        1.13564019631341     
   1.30551803776601        1.37562101650208        1.39593152855435     
  8.654770135345929E-002  0.212122417667363       0.459415786770891     
  0.787131230417607        1.07772445274995        1.24678245321765     
   1.31652262394474        1.33671978116939       6.792036250445430E-002
  0.173690602865967       0.402425640519250       0.714746940564153     
  0.994827305088764        1.15787656113925        1.22483434904318     
   1.24414139611325       5.102116589547189E-002  0.138026573335738     
  0.346364518473281       0.638963728455886       0.904009477243911     
   1.05847316977621        1.12174089119722        1.13993184668291     
  3.750925161728849E-002  0.108689332120212       0.297083250509306     
  0.568170348653964       0.816019842351287       0.960909674560413     
   1.02031496162082        1.03741235758082       2.745400257690446E-002
  8.594376156290222E-002  0.255304108003215       0.503863882851738     
  0.733076245911787       0.867753798103118       0.923214362655726     
  0.939235635603925       1.983123879584356E-002  6.768138123532791E-002
  0.217806903125003       0.441882546348382       0.650446151950409     
  0.773969785495357       0.825209233983445       0.840081418896377     
  1.294025905976889E-002  5.030941241721332E-002  0.178988305552762     
  0.374540434848753       0.559344830970643       0.671281179169225     
  0.718902035533346       0.732964452269371       3.434655378350132E-003
  2.561361025123246E-002  0.122381752392172       0.272090087032995     
  0.416624431947658       0.510825746767324       0.555315615470215     
  0.569356229213958     
 Zone I=  201 J=   15 K=1  T="NearWake"
 DATAPACKING=BLOCK
 VARLOCATION=([4]=CELLCENTERED)
 -0.925160765818638      -0.922565980698815      -0.919514909401495     
 -0.917416291449867      -0.915920209206600      -0.914962856444264     
 -0.914515612455971      -0.914554048367771      -0.915051211039920     
 -0.915976857035258      -0.917298152732908      -0.918980968161967     
 -0.920991166908850      -0.923295573764088      -0.925862330049507     
 -0.928660696625691      -0.931660473266631      -0.934831171482971     
 -0.938140160163845      -0.941550620455287      -0.945017461807783     
 -0.948484974335680      -0.951886506581137      -0.955146541348322     
 -0.958184998698227      -0.960921948337008      -0.963281329814627     
 -0.965193275967755      -0.966595373354757      -0.967433774640136     
 -0.967664224344146      -0.967253478814385      -0.966181266364600     
 -0.964441450319500      -0.962042557286489      -0.959011549882296     
 -0.955398668717323      -0.951283970932254      -0.946781763013885     
 -0.942031616767769      -0.937178930339827      -0.932351697110519     
 -0.927634964687441      -0.923051206165201      -0.918551825093438     
 -0.914021720538608      -0.909298298093889      -0.904208253201589     
 -0.898611420951949      -0.892438073441297      -0.885707582151327     
 -0.878525168149185      -0.871058597831765      -0.863501792963382     
 -0.856034608066194      -0.848788707409397      -0.841828099850541     
 -0.835148901196793      -0.828697207800900      -0.822398201021671     
 -0.816186554914482      -0.810028974776665      -0.803934088112214     
 -0.797949406120278      -0.792146997780911      -0.786601184473641     
 -0.781363257158829      -0.776437259202471      -0.771760701031652     
 -0.767198680781584      -0.762561384837065      -0.757650687864661     
 -0.752326536915396      -0.746579572650733      -0.740565682801944     
 -0.734535526509868      -0.728763418530528      -0.723474540913005     
 -0.718793041381027      -0.714760998308784      -0.711394169908079     
 -0.708705528682198      -0.706718445535287      -0.705469718375169     
 -0.704998206378104      -0.705332013970338      -0.706481186581888     
 -0.708433169012181      -0.711152103183705      -0.714575687409063     
 -0.718610802919352      -0.723133699788289      -0.728007091787164     
 -0.733095350758527      -0.738262058421876      -0.743362870780100     
 -0.748244828939363      -0.752750316340423      -0.756735745303062     
 -0.760106430239499      -0.762847998129283      -0.765030348895588     
 -0.766770286434566      -0.768160245371702      -0.769206095143268     
 -0.769802123165591      -0.769687330626472      -0.768258444175117     
 -0.764266650175286      -0.756128000508241      -0.744103560612768     
 -0.731318111156971      -0.720108592472382      -0.710686011113416     
 -0.702564306569437      -0.695333605860224      -0.688822024634549     
 -0.683030044490847      -0.677917866188820      -0.673240780841748     
 -0.668613890244328      -0.663651868195077      -0.658051459526256     
 -0.651605804766326      -0.644154149804969      -0.635492890379012     
 -0.625317348873429      -0.613412246264325      -0.600402168683710     
 -0.588752668235261      -0.581795291214192      -0.584180571577336     
 -0.596485672476246      -0.591217145747210      -0.601265998192765     
 -0.578520042634685      -0.583385498929631      -0.568677695307074     
 -0.554350472893510      -0.519869020061397      -0.505682871920822     
 -0.502591587473627      -0.499112736256570      -0.494356624035481     
 -0.488373361735374      -0.483988840804186      -0.481709380280465     
 -0.476579127369414      -0.471971929007154      -0.469231830317743     
 -0.466577788688165      -0.464986611224721      -0.464357806027895     
 -0.464389765498273      -0.462956573113493      -0.461161210780987     
 -0.461276133875434      -0.463736024798081      -0.466221751919377     
 -0.468430702985803      -0.472262373854805      -0.478449746487638     
 -0.486450583476971      -0.494928688717618      -0.503165870837776     
 -0.512999988530187      -0.524103807319583      -0.533705057915142     
 -0.541174724036045      -0.546990329917379      -0.549580084951644     
 -0.550577548123636      -0.550343123281800      -0.549516675567209     
 -0.548276670196548      -0.545851066898199      -0.542846402855783     
 -0.539692054189734      -0.536575644952976      -0.533451802270218     
 -0.530467349146159      -0.528639828599214      -0.532652619057604     
 -0.547732444488671      -0.608536792753667      -0.585499680818643     
 -0.572101156482864      -0.545154971878056      -0.574463728143960     
 -0.558798236039930      -0.551985723857976      -0.549352199376974     
 -0.547631299853458      -0.550271953413762      -0.546252188763108     
 -0.545444640482905      -0.587858585047903      -0.591670498319648     
 -0.568497354058444      -0.554797854010508      -0.558548228508003     
 -0.908441712228703      -0.905979035569896      -0.903697431516037     
 -0.902130478809392      -0.901198549960020      -0.900877795904936     
 -0.901143728525616      -0.901967071534939      -0.903315098455949     
 -0.905152730997237      -0.907442549154560      -0.910144456731194     
 -0.913215356958772      -0.916609404694666      -0.920279385905927     
 -0.924179322693473      -0.928267250233022      -0.932506410533793     
 -0.936863028385603      -0.941301667372968      -0.945778015531648     
 -0.950234557674057      -0.954600360981108      -0.958794923305973     
 -0.962734250571070      -0.966335900795223      -0.969521227897436     
 -0.972215212452037      -0.974345614821032      -0.975843789369165     
 -0.976647802214831      -0.976707798673643      -0.975990795080429     
 -0.974482366326609      -0.972184685770693      -0.969116247112518     
 -0.965313343240639      -0.960840979095755      -0.955812508207391     
 -0.950395324541744      -0.944791673760249      -0.939201362238025     
 -0.933769843764808      -0.928528754328702      -0.923368093814953     
 -0.918085271123602      -0.912467018915640      -0.906340026249551     
 -0.899589936274267      -0.892177375173191      -0.884150409494337     
 -0.875645922466251      -0.866875920810707      -0.858097719635823     
 -0.849568266589790      -0.841492752381387      -0.833987095443154     
 -0.827066955636828      -0.820660801965140      -0.814642276865241     
 -0.808875528724560      -0.803257342592457      -0.797740665200390     
 -0.792336889762832      -0.787103061441431      -0.782119188395512     
 -0.777458882768342      -0.773157593203755      -0.769182501760636     
 -0.765405036863299      -0.761579713009965      -0.757339568675132     
 -0.752264455159280      -0.746133661029788      -0.739173059100940     
 -0.731967991203584      -0.725177141558323      -0.719220034191696     
 -0.714171834170729      -0.709928204252817      -0.706353061500222     
 -0.703364390222256      -0.700973703193351      -0.699298216401670     
 -0.698508602009416      -0.698709687907984      -0.699865931489494     
 -0.701831228858373      -0.704419934903042      -0.707459296165876     
 -0.710816009175277      -0.714401645664307      -0.718166876420130     
 -0.722084064237693      -0.726116276999324      -0.730178563968346     
 -0.734119532196483      -0.737775371005095      -0.741035795936775     
 -0.743813501641152      -0.746032669249725      -0.747658013693924     
 -0.748703362234963      -0.749209546234249      -0.749206784266533     
 -0.748640116202988      -0.747097751285472      -0.743243942545637     
 -0.735204765291007      -0.723388735917009      -0.711001960667136     
 -0.699849802062946      -0.689894376067829      -0.680967913061934     
 -0.673346890995816      -0.667305974902575      -0.662777918156551     
 -0.659470639736492      -0.657030452928959      -0.655051050564418     
 -0.653054463331472      -0.650563642039018      -0.647199601182799     
 -0.642694038612843      -0.636830481322559      -0.629374015707691     
 -0.620164743086565      -0.609422799505998      -0.598677104315158     
 -0.590711013861107      -0.585177464016839      -0.585409137941511     
 -0.586500766140026      -0.545008520297384      -0.574907542899708     
 -0.593117761957420      -0.573417052046206      -0.563147803765519     
 -0.560135041552164      -0.547887411067261      -0.519835086787141     
 -0.510328618133484      -0.509292965663843      -0.503935977106976     
 -0.494497104967974      -0.483002184450424      -0.482930524195394     
 -0.476095582874195      -0.475873208495220      -0.473487465358221     
 -0.473662964833134      -0.471502799014186      -0.471849614231053     
 -0.462551372359979      -0.467024979402724      -0.466167409855958     
 -0.473576735107221      -0.473034215487730      -0.472573340902887     
 -0.477742372898766      -0.479548820509255      -0.479070352139909     
 -0.493708796071147      -0.495113977244982      -0.494196611677854     
 -0.519163266581273      -0.526031344068457      -0.530301343166563     
 -0.535165581139383      -0.540560342468038      -0.542413234252404     
 -0.542427092583179      -0.542199938877876      -0.540308322175918     
 -0.537963804269005      -0.536094787158045      -0.535298077609492     
 -0.534832060598700      -0.533815144893924      -0.533396067303135     
 -0.533533085368887      -0.533051107698138      -0.531773089809322     
 -0.529126331102287      -0.523396490738432      -0.516972182460334     
 -0.520668863284467      -0.521487724201846      -0.587927400945166     
 -0.570971469882419      -0.559211733807482      -0.573550010601425     
 -0.577470898803597      -0.585551129180686      -0.587879616212876     
 -0.566631819735100      -0.553704432587207      -0.567555304233974     
 -0.588870528556526      -0.598438332682038      -0.532051508329382     
 -0.891826286163070      -0.889444152314274      -0.887513813046160     
 -0.886342011216011      -0.885904063038610      -0.886177227322324     
 -0.887133803749393      -0.888743699189130      -0.890974403548014     
 -0.893788849293224      -0.897143015190952      -0.900984515547912     
 -0.905252811643842      -0.909882101193842      -0.914807456160724     
 -0.919973251449863      -0.925340219206205      -0.930885812738636     
 -0.936594331277948      -0.942441434570801      -0.948378975466532     
 -0.954330534390655      -0.960197440839342      -0.965871018321207     
 -0.971244970549427      -0.976222035623655      -0.980714240076246     
 -0.984640016092043      -0.987921247753744      -0.990482156627742     
 -0.992250076097318      -0.993159980688845      -0.993159921697857     
 -0.992215502258137      -0.990309671194710      -0.987445544244340     
 -0.983649290678649      -0.978982088076714      -0.973566229059467     
 -0.967601041888286      -0.961346005559027      -0.955066804652366     
 -0.948969319877211      -0.943103919192343      -0.937272431742084     
 -0.931158784658762      -0.924495717485511      -0.917117343686569     
 -0.908925803572935      -0.899904295018572      -0.890130955444171     
 -0.879773355649271      -0.869085428358983      -0.858391149254061     
 -0.848039251346446      -0.838321977123195      -0.829390802421533     
 -0.821226041856859      -0.813680669839537      -0.806566192560352     
 -0.799724409686235      -0.793059345433302      -0.786541917311466     
 -0.780201787124913      -0.774109883979047      -0.768355514439586     
 -0.763029168178627      -0.758217849431951      -0.753993422342827     
 -0.750359468005288      -0.747149106767318      -0.743919802541532     
 -0.739934605662669      -0.734511250134607      -0.727786951911091     
 -0.720704311025123      -0.714123746759254      -0.708305340665822     
 -0.703074830092459      -0.698278920609663      -0.694039328107965     
 -0.690701658172450      -0.688594955164301      -0.687851162746371     
 -0.688406457373816      -0.690079714217150      -0.692627674621540     
 -0.695787755220014      -0.699321182066526      -0.703043074044852     
 -0.706834700670876      -0.710638149584645      -0.714440680998679     
 -0.718250137310303      -0.722064686007053      -0.725842276067618     
 -0.729477105870452      -0.732789104588550      -0.735534490878730     
 -0.737471043865378      -0.738486727837439      -0.738664502563685     
 -0.738192081790728      -0.737236965038721      -0.735852250694039     
 -0.733825296978000      -0.730411142899734      -0.724426479124395     
 -0.715495623677447      -0.704920327517145      -0.694368919821472     
 -0.685029469322791      -0.677821555340616      -0.673228126388478     
 -0.671214986500726      -0.671470290154568      -0.673290193210118     
 -0.675525887141720      -0.677097945747171      -0.677454256214296     
 -0.676424464230773      -0.673950207800561      -0.669909675934194     
 -0.664057111541415      -0.656077848621871      -0.645682939209796     
 -0.632748037575653      -0.617636344409901      -0.601101045620712     
 -0.584788081065641      -0.572221033152136      -0.564665451738178     
 -0.555390916362447      -0.542269493891019      -0.570306989316576     
 -0.583748295713465      -0.577409049077938      -0.571258771175544     
 -0.548970060972863      -0.538480469236504      -0.524200366635794     
 -0.513459443299889      -0.515360498524622      -0.513178222296684     
 -0.515350359069959      -0.516087667888173      -0.508960636317270     
 -0.499398656361375      -0.490216408704501      -0.482943636682349     
 -0.476836228931623      -0.471786373811944      -0.467221211739208     
 -0.463242411919065      -0.460038218348564      -0.457825445384209     
 -0.457208801228383      -0.458449081914678      -0.461165108792501     
 -0.465399195237620      -0.471050594098568      -0.477856458294018     
 -0.485648876917591      -0.494467590920663      -0.504916567933722     
 -0.516724697790252      -0.527238123776562      -0.532295158241588     
 -0.537957611288469      -0.542625524074163      -0.547225365785581     
 -0.554767590592223      -0.560328233456030      -0.564487569869381     
 -0.568298155313830      -0.572481726959083      -0.565768087833332     
 -0.523485592180825      -0.522828862409842      -0.522034740807246     
 -0.519921894545002      -0.521917721282363      -0.525319394857932     
 -0.529371060340379      -0.530628129914940      -0.529164180150544     
 -0.526022579668280      -0.520299003791153      -0.513551868511243     
 -0.509001664214259      -0.509512609260699      -0.538196000845967     
 -0.546543275433693      -0.527572011358756      -0.521213399184428     
 -0.523088930411441      -0.518108740623586      -0.489749683117681     
 -0.444901456565576      -0.428023289957153      -0.424931766834444     
 -0.875300346711520      -0.872954133086866      -0.871234710116532     
 -0.870385341706628      -0.870381639309245      -0.871198300114598     
 -0.872810203515810      -0.875188822022991      -0.878298193677709     
 -0.882093713182259      -0.886520815710656      -0.891513098640449     
 -0.896992201747458      -0.902872412870614      -0.909072087643443     
 -0.915530776095216      -0.922223568738021      -0.929157832906509     
 -0.936344812118677      -0.943764543075152      -0.951347904318135     
 -0.958987495584763      -0.966559737931360      -0.973941752058281     
 -0.981018058610549      -0.987680022222511      -0.993825259594889     
 -0.999358856620713       -1.00419361702503       -1.00824874410111     
  -1.01144762069735       -1.01371736021088       -1.01499014791279     
  -1.01520779286058       -1.01432114613949       -1.01229216096756     
  -1.00909778618256       -1.00474058276847      -0.999270443708247     
 -0.992804350397190      -0.985554504178082      -0.977838785415764     
 -0.970035473680652      -0.962452944922261      -0.955167821391790     
 -0.947913203083732      -0.940260637880195      -0.931936879053753     
 -0.922603268163802      -0.912058662111361      -0.900365329980868     
 -0.887783031772371      -0.874653949252824      -0.861367081465210     
 -0.848361352480791      -0.836054228291311      -0.824720747944016     
 -0.814416864176037      -0.805023213544949      -0.796345420022607     
 -0.788190389273127      -0.780405958870065      -0.772896781992181     
 -0.765624912700451      -0.758598927607388      -0.751862595818463     
 -0.745489813054376      -0.739577957759944      -0.734239080239460     
 -0.729572224269322      -0.725511746253882      -0.721438527210507     
 -0.716231239461833      -0.709838291802092      -0.703446527875847     
 -0.697552704861497      -0.691825287258706      -0.686215948980641     
 -0.681085600584961      -0.676992965861474      -0.674307468146948     
 -0.673190661115772      -0.673588100854664      -0.675333417100266     
 -0.678215913446844      -0.681985987251885      -0.686374053894224     
 -0.691125679070776      -0.696033934872788      -0.700957578237634     
 -0.705826298774830      -0.710632578935734      -0.715417505995174     
 -0.720251193563578      -0.725204586610573      -0.730303824553217     
 -0.735474494149277      -0.740522201652905      -0.745172133651443     
 -0.749098039911999      -0.751923052382565      -0.753287541149216     