 Title = "Wing and Wake"
 VARIABLES = "X" "Y" "Z" "GAM"
 Zone I=    9 J=   15 K=1  T="Blade"
 DATAPACKING=BLOCK
 VARLOCATION=([4]=CELLCENTERED)
  -1.80372844255874       -1.80282680748909       -1.80044929118924     
  -1.79676804534732       -1.79237911699267       -1.78848155390944     
  -1.78581940471475       -1.78432519947844       -1.78358086895351     
  -1.80159907618232       -1.80049409162954       -1.79758095053584     
  -1.79288709192575       -1.78703769329989       -1.78161904977139     
  -1.77780831428631       -1.77563330174624       -1.77454081510532     
  -1.79890949926741       -1.79766111762069       -1.79437059597049     
  -1.78889200005278       -1.78183039794610       -1.77509045262351     
  -1.77025733156702       -1.76746898165337       -1.76606104019964     
  -1.79573510072742       -1.79437029116499       -1.79077324178188     
  -1.78464813734107       -1.77657852696007       -1.76873340914618     
  -1.76304263063470       -1.75973904725707       -1.75806601851502     
  -1.79163707831046       -1.79018281001053       -1.78635017968739     
  -1.77978482925374       -1.77108600069387       -1.76258986383229     
  -1.75640922355760       -1.75281574500645       -1.75099462070737     
  -1.78680788106526       -1.78531376979821       -1.78137655168638     
  -1.77460089804420       -1.76558473528629       -1.75674786588041     
  -1.75030552121083       -1.74655586574611       -1.74465439772795     
  -1.78143472996391       -1.77993732977268       -1.77599127855022     
  -1.76917503018682       -1.76007335540041       -1.75112757561979     
  -1.74459473855083       -1.74078888946738       -1.73885819700872     
  -1.77570587100357       -1.77422801641886       -1.77033383622906     
  -1.76358627939625       -1.75455028912403       -1.74564848695806     
  -1.73913886029683       -1.73534362974000       -1.73341763574444     
  -1.76975411695358       -1.76830943351839       -1.76450264474232     
  -1.75788993380059       -1.74901387921243       -1.74025359475515     
  -1.73384028658755       -1.73009908835642       -1.72819996956981     
  -1.76361380079662       -1.76221365879165       -1.75852423762392     
  -1.75210228428421       -1.74346613322213       -1.73492996545492     
  -1.72867499549392       -1.72502447760069       -1.72317093390619     
  -1.75728748526799       -1.75594334894321       -1.75240174142473     
  -1.74622636342872       -1.73790895610361       -1.72967762462258     
  -1.72364160304222       -1.72011747380649       -1.71832782921020     
  -1.75076477398161       -1.74948914124890       -1.74612776677508     
  -1.74025844666565       -1.73234313381299       -1.72450168080031     
  -1.71874813082177       -1.71538779000984       -1.71368112027196     
  -1.74402461782279       -1.74283158407144       -1.73968793637786     
  -1.73419167423888       -1.72677092161253       -1.71941275251473     
  -1.71401074154562       -1.71085497181724       -1.70925185620618     
  -1.73702974519648       -1.73593547313957       -1.73305221427121     
  -1.72800662871317       -1.72118859493379       -1.71442374775676     
  -1.70945540493213       -1.70655222458022       -1.70507737701189     
  -1.72978572585439       -1.72880647217427       -1.72622598226833     
  -1.72170747030128       -1.71559815269650       -1.70953356446047     
  -1.70507838777606       -1.70247468746239       -1.70115197612937     
  0.456271136246381       0.455942967918858       0.455077622754230     
  0.453737758842754       0.452140319561338       0.450721722612864     
  0.449752779546822       0.449208933316920       0.448938019161391     
  0.472872643443168       0.472470461956633       0.471410165310311     
  0.469701740492382       0.467572733504208       0.465600508549738     
  0.464213514262506       0.463421874438765       0.463024241820135     
  0.489270144261240       0.488815770500832       0.487618118564950     
  0.485624072725334       0.483053859752270       0.480600720274265     
  0.478841608071099       0.477826731699809       0.477314282919065     
  0.505491290856638       0.504994540800471       0.503685321893834     
  0.501455966195610       0.498518868214800       0.495663478846232     
  0.493592204858251       0.492389798842376       0.491780866179199     
  0.521376265853158       0.520846955479347       0.519451992122779     
  0.517062399987407       0.513896285318626       0.510803944394760     
  0.508554375306064       0.507246456075973       0.506583621038208     
  0.536995114976157       0.536451302948270       0.535018272749748     
  0.532552136506300       0.529270521635115       0.526054164207282     
  0.523709342508670       0.522344579530758       0.521652501770740     
  0.552415874668923       0.551870865570535       0.550434620382666     
  0.547953708869024       0.544640970164798       0.541384972602353     
  0.539007214363939       0.537621998581456       0.536919283994979     
  0.567707273706701       0.567169378627293       0.565752012951337     
  0.563296103110172       0.560007271613966       0.556767280594227     
  0.554397970253355       0.553016619298489       0.552315614812730     
  0.582917545566481       0.582391723798132       0.581006165995504     
  0.578599336044910       0.575368716377098       0.572180233590943     
  0.569845980314759       0.568484295518140       0.567793072808479     
  0.598059080014238       0.597549470000680       0.596206630513957     
  0.593869230652453       0.590725928727233       0.587619017745265     
  0.585342394863230       0.584013715010438       0.583339080277731     
  0.613133022644889       0.612643797031876       0.611354757313694     
  0.609107103537802       0.606079814845199       0.603083855197721     
  0.600886923009086       0.599604244865569       0.598952867502607     
  0.628135483065586       0.627671190721020       0.626447750466330     
  0.624311492651118       0.621430554377844       0.618576498887834     
  0.616482377954280       0.615259313921750       0.614638136937439     
  0.643058800025118       0.642624571251150       0.641480377063668     
  0.639479901245358       0.636778968173514       0.634100813643216     
  0.632134642445280       0.630986036197953       0.630402549833438     
  0.657889301354533       0.657491018897630       0.656441598491864     
  0.654605155534290       0.652123594182375       0.649661391170574     
  0.647853062268783       0.646796391035981       0.646259590421030     
  0.672629227113212       0.672272807921854       0.671333586406264     
  0.669688982547084       0.667465372787266       0.665258043186270     
  0.663636491484750       0.662688822071622       0.662207394517877     
  5.806800000000000E-003  5.846700000000000E-003  5.955500000000000E-003
  5.154700000000000E-003  2.862200000000000E-003 -3.575000000000000E-004
 -3.136400000000000E-003 -4.887000000000000E-003 -5.806800000000000E-003
  6.395100000000000E-003  6.417400000000000E-003  6.480000000000000E-003
  5.547100000000000E-003  3.013300000000000E-003 -4.950000000000000E-004
 -3.507400000000000E-003 -5.401000000000000E-003 -6.395100000000000E-003
  6.406000000000000E-003  6.371700000000000E-003  6.284800000000000E-003
  5.216700000000000E-003  2.654400000000000E-003 -7.614000000000000E-004
 -3.653000000000000E-003 -5.459900000000000E-003 -6.406000000000000E-003
  6.173600000000000E-003  6.070000000000000E-003  5.799600000000000E-003
  4.603500000000000E-003  2.104300000000000E-003 -1.064900000000000E-003
 -3.694600000000000E-003 -5.323700000000000E-003 -6.173600000000000E-003
  5.700500000000000E-003  5.636900000000000E-003  5.472000000000000E-003
  4.443200000000000E-003  2.149100000000000E-003 -8.329000000000000E-004
 -3.332400000000000E-003 -4.887600000000000E-003 -5.700500000000000E-003
  5.159100000000000E-003  5.126700000000000E-003  5.043900000000000E-003
  4.172200000000000E-003  2.106600000000000E-003 -6.360000000000000E-004
 -2.954000000000000E-003 -4.401400000000000E-003 -5.159100000000000E-003
  4.585800000000000E-003  4.577700000000000E-003  4.559000000000000E-003
  3.833200000000000E-003  2.006000000000000E-003 -4.679000000000000E-004
 -2.574500000000000E-003 -3.894100000000000E-003 -4.585800000000000E-003
  4.030700000000000E-003  4.040600000000000E-003  4.069300000000000E-003
  3.471600000000000E-003  1.872800000000000E-003 -3.313000000000000E-004
 -2.220800000000000E-003 -3.407700000000000E-003 -4.030700000000000E-003
  3.545600000000000E-003  3.566200000000000E-003  3.623000000000000E-003
  3.125500000000000E-003  1.724200000000000E-003 -2.354000000000000E-004
 -1.924000000000000E-003 -2.987100000000000E-003 -3.545600000000000E-003
  3.123600000000000E-003  3.149200000000000E-003  3.218600000000000E-003
  2.797600000000000E-003  1.566100000000000E-003 -1.730000000000000E-004
 -1.677000000000000E-003 -2.625200000000000E-003 -3.123600000000000E-003
  2.748800000000000E-003  2.774900000000000E-003  2.845700000000000E-003
  2.483700000000000E-003  1.401600000000000E-003 -1.351000000000000E-004
 -1.466800000000000E-003 -2.307000000000000E-003 -2.748800000000000E-003
  2.414800000000000E-003  2.438000000000000E-003  2.500800000000000E-003
  2.183400000000000E-003  1.232800000000000E-003 -1.176000000000000E-004
 -1.288000000000000E-003 -2.026500000000000E-003 -2.414800000000000E-003
  2.085400000000000E-003  2.104900000000000E-003  2.157700000000000E-003
  1.882300000000000E-003  1.061200000000000E-003 -1.041000000000000E-004
 -1.113600000000000E-003 -1.750500000000000E-003 -2.085400000000000E-003
  1.829100000000000E-003  1.839700000000000E-003  1.868800000000000E-003
  1.612000000000000E-003  8.891000000000000E-004 -1.217000000000000E-004
 -9.927000000000000E-004 -1.541000000000000E-003 -1.829100000000000E-003
  1.626300000000000E-003  1.624800000000000E-003  1.622000000000000E-003
  1.367900000000000E-003  7.205000000000000E-004 -1.593000000000000E-004
 -9.095000000000000E-004 -1.379700000000000E-003 -1.626300000000000E-003
  6.168489924921194E-002  0.162293824765881       0.379818659801996     
  0.679276197388117       0.950760726971806        1.12035681785473     
   1.19636824715164        1.21812386878737       8.701495516972034E-002
  0.219048321877244       0.485326937004342       0.841417122997838     
   1.15622325735629        1.33953981584890        1.41539292313940     
   1.43674577541876       9.743173420537904E-002  0.237375495032675     
  0.505335200727627       0.854075857995831        1.15726384761945     
   1.32958903858978        1.39873607210663        1.41809879258803     
  9.033733637521346E-002  0.220310490319293       0.475517117595648     
  0.812003920390239        1.10701833108263        1.27464549428824     
   1.34143788081672        1.36012284346750       6.900423569350028E-002
  0.178397518792151       0.422444473608836       0.756468177923093     
   1.05421216434577        1.22549390691628        1.29488003299944     
   1.31461413710445       4.874643526511468E-002  0.137664274186024     
  0.367023528906528       0.693674608401826       0.990230342618039     
   1.16256665047599        1.23294352900871        1.25309424475546     
  3.007194262963888E-002  9.941231606967789E-002  0.311656233746661     
  0.625841917797170       0.915709318307023        1.08527712588566     
   1.15471689909756        1.17464659302145       1.442069498894007E-002
  6.669236701316632E-002  0.261372804122897       0.559795193785739     
  0.838579984842144        1.00213254812876        1.06902266286704     
   1.08819734690277       4.832907668658262E-003  4.562217050663545E-002
  0.225125158887397       0.506705371514813       0.771516553231081     
  0.926724863748966       0.989894390429988        1.00792172854011     
  4.893713315457715E-003  4.352076483496872E-002  0.213884845972131     
  0.480505376786001       0.730487821822577       0.876176399196742     
  0.934941638541998       0.951602637868461       1.764059310575455E-002
  6.682749674993886E-002  0.237821011235503       0.495214851864285     
  0.732964529383490       0.870559297235673       0.925774935919640     
  0.941408470248709       4.160470135426543E-002  0.112856409753786     
  0.293801784636883       0.548715203979306       0.779545570555445     
  0.913710651339000       0.968427486475298       0.984181552840486     
  6.700581672154425E-002  0.161319614083537       0.351035655552714     
  0.600955500384665       0.824746995226047       0.959121110410945     
   1.01689419902352        1.03420301828080       7.347911781550936E-002
  0.167818846323268       0.335560530338361       0.543343910095570     
  0.729892985061460       0.853895841035697       0.915632525046648     
  0.935810222090961     
 Zone I=  361 J=   15 K=1  T="NearWake"
 DATAPACKING=BLOCK
 VARLOCATION=([4]=CELLCENTERED)
  -1.78281266088194       -1.77433123894452       -1.76609545549611     
  -1.75814350881888       -1.75054595940971       -1.74332724891991     
  -1.73652203539485       -1.73015962506431       -1.72425965568463     
  -1.71883362471870       -1.71388562863225       -1.70941207379047     
  -1.70541576955906       -1.70189808064137       -1.69886879343564     
  -1.69634321446155       -1.69432895391668       -1.69282607680488     
  -1.69182712189729       -1.69131808311176       -1.69127506025511     
  -1.69166162035996       -1.69246309972995       -1.69364547961487     
  -1.69517610536843       -1.69703182519118       -1.69918549027978     
  -1.70162135621989       -1.70430926354152       -1.70722535357714     
  -1.71034403539317       -1.71363554423247       -1.71705968769412     
  -1.72056569154956       -1.72408799722466       -1.72754782049184     
  -1.73086066316771       -1.73393486819611       -1.73667528204676     
  -1.73899040539575       -1.74079136093352       -1.74199823028884     
  -1.74254664519072       -1.74239368315923       -1.74151187388380     
  -1.73988791793233       -1.73751400541610       -1.73438165333145     
  -1.73048833001101       -1.72586638645578       -1.72062861428996     
  -1.71498414758236       -1.70920123703203       -1.70353930916355     
  -1.69817071572154       -1.69312978237496       -1.68830096097611     
  -1.68344287008874       -1.67825843463235       -1.67247227140174     
  -1.66590453965721       -1.65852848335815       -1.65048400220489     
  -1.64204845109948       -1.63356301302429       -1.62534044422709     
  -1.61757958265312       -1.61033713547099       -1.60354832873867     
  -1.59707656246831       -1.59076599081892       -1.58448171683092     
  -1.57813450762689       -1.57169248049694       -1.56517381023884     
  -1.55862863735895       -1.55211482306339       -1.54566865332865     
  -1.53928157618814       -1.53288714948750       -1.52636924344815     
  -1.51960492239161       -1.51247184322710       -1.50483575406445     
  -1.49652158726196       -1.48731221942907       -1.47711856226583     
  -1.46625216169177       -1.45569460712652       -1.44709254757454     
  -1.44152209797500       -1.43813242735109       -1.43599009268354     
  -1.43456384060660       -1.43362756725858       -1.43323147834415     
  -1.43344620730427       -1.43424401931420       -1.43553799442533     
  -1.43723083601775       -1.43927440232728       -1.44168174359524     
  -1.44450854246870       -1.44782081473806       -1.45169928151537     
  -1.45625640458013       -1.46163809632548       -1.46794933835370     
  -1.47517189563942       -1.48296863125429       -1.49060431563326     
  -1.49724329531268       -1.50243630900920       -1.50632352693695     
  -1.50928537064505       -1.51158171018036       -1.51319384584101     
  -1.51381830792510       -1.51319211254187       -1.51124703076845     
  -1.50756032782284       -1.50093192663913       -1.49000384890823     
  -1.47571499169652       -1.46185514246505       -1.44904606556147     
  -1.43686711671495       -1.42553489078266       -1.41555188708628     
  -1.40685631873412       -1.39881032723258       -1.39067879883458     
  -1.38226309496613       -1.37426494545657       -1.36815951634172     
  -1.36431159097094       -1.36135142598115       -1.35804528014940     
  -1.35406628877285       -1.34959258450413       -1.34485491689098     
  -1.33996473711452       -1.33554538649154       -1.33118255374085     
  -1.32727551723118       -1.32375667643376       -1.32043234401800     
  -1.31710290403216       -1.31369773340844       -1.31029535371958     
  -1.30703627098504       -1.30401340818803       -1.30119450316144     
  -1.29835652492129       -1.29495024020737       -1.29002699720224     
  -1.28231385119226       -1.26999355030504       -1.25427594215428     
  -1.24031742376311       -1.23200101872859       -1.23050882237693     
  -1.23438503182413       -1.22791695621255       -1.21829763417027     
  -1.20926367259971       -1.20015143917537       -1.19171208822653     
  -1.18504353068267       -1.18056181288810       -1.17815988373341     
  -1.17759867622050       -1.17864522169047       -1.18097439521307     
  -1.18428234743547       -1.18851837240604       -1.19379487818424     
  -1.20030170499332       -1.20837772949992       -1.21877776514028     
  -1.23228279892787       -1.24954399388213       -1.27021556251083     
  -1.28538023038974       -1.29162279681813       -1.29094936281877     
  -1.28537882315441       -1.28198838657200       -1.28407048897797     
  -1.28908613091632       -1.29276408938517       -1.29281042021016     
  -1.28951336836278       -1.28185406137621       -1.27046872473301     
  -1.25360675133611       -1.24091233281590       -1.22697979701886     
  -1.20666847304474       -1.18419117725497       -1.16740148730254     
  -1.15682158006744       -1.14945076565028       -1.14257070432624     
  -1.13399040103360       -1.12197608445324       -1.10713413207771     
  -1.09680754583817       -1.09310251011938       -1.09203096323724     
  -1.09145406672884       -1.09092334064725       -1.09019601657874     
  -1.08913826424726       -1.08795318323128       -1.08711848329766     
  -1.08709547186725       -1.08794325361553       -1.08925212269426     
  -1.09044396546840       -1.09120792017374       -1.09175434577111     
  -1.09280218577760       -1.09539572909143       -1.10052290143129     
  -1.10827094915582       -1.11641602316579       -1.12118643478204     
  -1.12610575063501       -1.12052802807350       -1.11315476289618     
  -1.09202828900009       -1.07702810905031       -1.07397906594637     
  -1.09118953225436       -1.10189701997533       -1.07898555633171     
  -1.04922867325526       -1.01983950873621      -0.990163381164442     
 -0.962167332047446      -0.943847897117761      -0.932888119063505     
 -0.925946744824155      -0.922496430054234      -0.922358768557310     
 -0.924840516569972      -0.929176535402843      -0.935268228754992     
 -0.943523549534376      -0.954845483756916      -0.971564208573161     
 -0.996002876336011       -1.02872115053246       -1.07600145629386     
  -1.10691763837087       -1.10980812588485       -1.11504137287115     
  -1.12175170054945       -1.12212297836088       -1.12515210992175     
  -1.12947605803563       -1.13252894237168       -1.13304157526140     
  -1.13056136768567       -1.12399683282543       -1.09888959056203     
  -1.03895687171445       -1.01118093325212       -1.01220316098072     
  -1.02129762848058       -1.02463689665215       -1.01005746422190     
  -1.00433814699554       -1.00126237358296      -0.997569578167218     
 -0.991334608255080      -0.979368969292393      -0.948237550110488     
 -0.907254250644037      -0.877542703973044      -0.860833018516254     
 -0.851690164962300      -0.846649062379770      -0.844360815897499     
 -0.844430123658864      -0.846600629939536      -0.850705491965222     
 -0.856363560905776      -0.862804617910395      -0.869146741114878     
 -0.874871018071575      -0.879974734734770      -0.884810319546596     
 -0.890000670592504      -0.896352423777947      -0.904442520636587     
 -0.914073968703453      -0.924847359870032      -0.937339044791464     
 -0.952872360280486      -0.966754671190641      -0.988114901599194     
 -0.975797299954957      -0.935356379492969      -0.897329815989605     
 -0.899847835435154      -0.933867748244290      -0.973062494050739     
 -0.957911243639228      -0.913230520896701      -0.843528887625792     
 -0.765962100430055      -0.721914360698698      -0.698061958646118     
 -0.685323813317360      -0.680374892357708      -0.680570058619976     
 -0.682891876426311      -0.685279228809332      -0.687975331441363     
 -0.693120429715721      -0.709452215872056      -0.748593098836685     
 -0.846713006756138      -0.969996968412801      -0.991588473602166     
 -0.963991017975738      -0.950674805314097      -0.944456599627562     
 -0.952325730074618      -0.970916228514347      -0.994178293749085     
  -1.00564771120065       -1.00701900091024       -1.00300218175845     
 -0.993373739244974      -0.979525330812406      -0.958315106683288     
 -0.959727030096605      -0.964098143476508      -0.958264723867246     
 -0.947564573727382      -0.935224166581383      -0.910662359448911     
 -0.863710998744548      -0.814918255148196      -0.798287214379898     
 -0.794665142551259      -0.790414432974737      -0.767728905583816     
 -0.728201835145518      -0.788100353861902      -0.760629005274331     
 -0.765903487936639      -0.758500170723763      -0.755665934515236     
 -0.769248347778204      -0.793810477951091      -0.822013955691091     
 -0.844778826801425       -1.77377260703374       -1.76409789003215     
  -1.75523934205187       -1.74651737130639       -1.73815132051753     
  -1.73021631894015       -1.72276400447544       -1.71583047397605     
  -1.70943986449162       -1.70360838475746       -1.69834815524135     
  -1.69367000482688       -1.68959427054024       -1.68613926534231     
  -1.68332096896261       -1.68114710883533       -1.67960850364133     
  -1.67868675469499       -1.67835948703212       -1.67860295080509     
  -1.67939075812416       -1.68068508865901       -1.68246395614674     
  -1.68469040408627       -1.68732048660059       -1.69031139287697     
  -1.69361861130019       -1.69720580107054       -1.70103387931636     
  -1.70507050616120       -1.70928491875452       -1.71364582153646     
  -1.71811597726804       -1.72264983194657       -1.72719048695121     
  -1.73166601891203       -1.73599069294328       -1.74006870189767     
  -1.74379556878316       -1.74706138630077       -1.74975528329105     
  -1.75176912549609       -1.75300669880879       -1.75339286894438     
  -1.75288160741453       -1.75145462380368       -1.74911409177954     
  -1.74587889797054       -1.74178070291326       -1.73686680018488     
  -1.73124441744414       -1.72513187208123       -1.71886127102559     
  -1.71279041343415       -1.70716065006435       -1.70197384168731     
  -1.69693940467805       -1.69158519709341       -1.68547227570621     
  -1.67833309773452       -1.67013052643459       -1.66102627869593     
  -1.65132578291699       -1.64142781387678       -1.63173417217241     
  -1.62253742183961       -1.61394809943157       -1.60591035778880     
  -1.59827326713690       -1.59087413150003       -1.58359336072300     
  -1.57637719470489       -1.56922534576445       -1.56217154913056     
  -1.55526278194214       -1.54854290652097       -1.54203388283301     
  -1.53571548705334       -1.52950691466474       -1.52326143056697     
  -1.51679126012256       -1.50992817867606       -1.50254468819421     
  -1.49447955077334       -1.48541952493665       -1.47507781516049     
  -1.46369342469035       -1.45254728564231       -1.44383643384340     
  -1.43963292971924       -1.43857442786163       -1.43808293968095     
  -1.43734248900787       -1.43643999474650       -1.43566956287123     
  -1.43532166853694       -1.43562800005084       -1.43669795354499     
  -1.43846915980432       -1.44076363822911       -1.44341826727803     
  -1.44634932002154       -1.44955793549717       -1.45310281781658     
  -1.45706049431951       -1.46147611039602       -1.46631418867933     
  -1.47146709980232       -1.47683748196402       -1.48234724177812     
  -1.48781523332199       -1.49282636644841       -1.49688023382300     
  -1.49953147045828       -1.50059893318052       -1.50047392305581     
  -1.49972502514517       -1.49852166413217       -1.49677879120580     
  -1.49436294815376       -1.49131231185660       -1.48722117756986     
  -1.47941942233260       -1.46538894974263       -1.44815133262825     
  -1.43114403312875       -1.41717007188659       -1.40716380977157     
  -1.39960939245802       -1.39250141712476       -1.38480942385685     
  -1.37686451785296       -1.36939231616472       -1.36314223765588     
  -1.35840810447869       -1.35430792101997       -1.34979560601933     
  -1.34454215422511       -1.33858163684445       -1.33206104870918     
  -1.32513619494421       -1.31829665689942       -1.31133338674541     
  -1.30471870299139       -1.29854937528197       -1.29303356879821     
  -1.28829506980818       -1.28433060518950       -1.28104753391296     
  -1.27840234911391       -1.27652725468980       -1.27571699446611     
  -1.27614090343787       -1.27731770168488       -1.27803954424064     
  -1.27816596235873       -1.27683572401522       -1.26896504212088     
  -1.25410742546033       -1.23924002131606       -1.23030013124128     
  -1.23869673973633       -1.23839824014721       -1.22990893178092     
  -1.22047483873746       -1.21023764789918       -1.19932596838122     
  -1.19024911747490       -1.18495386791089       -1.18376045269740     
  -1.18503697761606       -1.18705572769059       -1.18994580047550     
  -1.19338274825688       -1.19731439235404       -1.20179218791038     
  -1.20682333704962       -1.21233227265159       -1.21809863626820     
  -1.22393244746792       -1.23020960488962       -1.23775077700127     
  -1.24752445301441       -1.26000179351608       -1.27343717917866     
  -1.28286384929549       -1.28790873722144       -1.28791828667850     
  -1.28283132916277       -1.27673514733245       -1.27290789898521     
  -1.27007392575443       -1.26469612897766       -1.26043772617595     
  -1.26079274524810       -1.25354692979514       -1.23201654856936     
  -1.19216639333674       -1.16846692730803       -1.15754740144081     
  -1.14918064565252       -1.14059614458512       -1.13295594582406     
  -1.12674992592228       -1.11914090663943       -1.10912159741509     
  -1.10214567999718       -1.10174243751688       -1.10553085209115     
  -1.10968387367752       -1.11305812218477       -1.11506832485445     
  -1.11455705916662       -1.11012963319582       -1.10106605981918     
  -1.08779496963585       -1.07243749131375       -1.05777663864149     
  -1.04520243024009       -1.03509277635574       -1.02765461068645     
  -1.02282095791368       -1.02074293488140       -1.02195372824603     
  -1.02758365332605       -1.03952216625141       -1.05929252808692     
  -1.08377858293041       -1.10002845532471       -1.11038293188417     
  -1.10819990846155       -1.10561297867412       -1.09218633559428     
  -1.09725089259394       -1.10847961774800       -1.09616558563887     
  -1.06817776085722       -1.03589876084800      -0.999485949358348     
 -0.962212087197178      -0.940003524788359      -0.928083552966245     
 -0.924725188775681      -0.926020279138874      -0.929115734014562     
 -0.932973982983484      -0.937470416570511      -0.942727125002640     
 -0.948649506958483      -0.954953698897924      -0.961337323739693     
 -0.968173936932676      -0.977982679338506      -0.993312712185272     
  -1.01269526691735       -1.04255330813957       -1.08467560806391     
  -1.10966407773406       -1.11549991169002       -1.12408910385036     
  -1.11851089390081       -1.10553535784863       -1.10175233510358     
  -1.10182338597393       -1.09714233178319       -1.09948822058966     
  -1.11065065795238       -1.07950048197501       -1.04737274367361     
  -1.03385659471858       -1.01722088559572       -1.01485290007834     
  -1.01084923827607       -1.00503107585177      -0.997898825388109     
 -0.990506553148864      -0.982123311553169      -0.962213144442983     
 -0.939251924988409      -0.926634527297641      -0.923647223417089     
 -0.925292697770178      -0.929489972206092      -0.934747987110866     
 -0.939580176979124      -0.942960384884344      -0.944414352986725     
 -0.943852775179426      -0.941528271426814      -0.938045388409014     
 -0.934397569973363      -0.931686106190893      -0.930828398682581     
 -0.932298957461722      -0.935499953248556      -0.938661691137225     
 -0.939594769566721      -0.938380455839183      -0.938704272767541     
 -0.943492430837584      -0.946556773672782      -0.951918720669573     
 -0.952879324839956      -0.952179867349130      -0.949678253209387     
 -0.904396897322315      -0.923514330866262      -0.963830120320520     
 -0.967956091377210      -0.932968510066542      -0.868618985423614     
 -0.775033857020599      -0.715867282360315      -0.689960888834762     
 -0.682264492026474      -0.683322926808003      -0.683846564279426     
 -0.685221924595647      -0.687119650028542      -0.689406213404386     
 -0.692092591914322      -0.694768813442574      -0.696154533425216     
 -0.703316771703107      -0.727040310567434      -0.772553445404970     
 -0.874437402595553      -0.976198892541368      -0.996488240225348     
 -0.967153804281077      -0.947028299160015      -0.917924460836752     
 -0.908991656380211      -0.904592812836135      -0.903516689983304     
 -0.903336974862087      -0.916754297046770      -0.968222099093533     
 -0.972204741542575      -0.942582116388642      -0.927202395105980     
 -0.892321192392731      -0.828492706352040      -0.823932229958722     