 Title = "Wing and Wake"
 VARIABLES = "X" "Y" "Z" "GAM" "skew"
 Zone I=   17 J=   20 K=1  T="Blade 01"
 DATAPACKING=BLOCK
 VARLOCATION=([4]=CELLCENTERED,[5]=CELLCENTERED)
 -0.221663389895097      -0.222945346372708      -0.226247273857764     
 -0.231211479631014      -0.237987540569038      -0.246850225223248     
 -0.257876833540094      -0.270737092178090      -0.284664269726175     
 -0.298568610849395      -0.311369581437889      -0.322310953790689     
 -0.331067286214967      -0.337733685419691      -0.342607807512604     
 -0.346067152300409      -0.348454094645654      -0.227471095821222     
 -0.228753052298829      -0.232054979783891      -0.237019185557140     
 -0.243795246495164      -0.252657931149372      -0.263684539466225     
 -0.276544798104208      -0.290471975652304      -0.304376316775522     
 -0.317177287364014      -0.328118659716817      -0.336874992141097     
 -0.343541391345824      -0.348415513438719      -0.351874858226536     
 -0.354261800571779      -0.235684515813597      -0.236966472291208     
 -0.240268399776265      -0.245232605549510      -0.252008666487539     
 -0.260871351141738      -0.271897959458601      -0.284758218096587     
 -0.298685395644678      -0.312589736767896      -0.325390707356390     
 -0.336332079709190      -0.345088412133469      -0.351754811338191     
 -0.356628933431101      -0.360088278218908      -0.362475220564155     
 -0.247150746589880      -0.248432703067493      -0.251734630552552     
 -0.256698836325798      -0.263474897263821      -0.272337581918031     
 -0.283364190234885      -0.296224448872873      -0.310151626420963     
 -0.324055967544172      -0.336856938132674      -0.347798310485472     
 -0.356554642909755      -0.363221042114483      -0.368095164207384     
 -0.371554508995194      -0.373941451340438      -0.262872225416441     
 -0.264154181894054      -0.267456109379110      -0.272420315152359     
 -0.279196376090384      -0.288059060744592      -0.299085669061442     
 -0.311945927699433      -0.325873105247525      -0.339777446370740     
 -0.352578416959234      -0.363519789312027      -0.372276121736315     
 -0.378942520941044      -0.383816643033947      -0.387275987821753     
 -0.389662930166999      -0.283903846607679      -0.285185803085290     
 -0.288487730570341      -0.293451936343594      -0.300227997281619     
 -0.309090681935829      -0.320117290252672      -0.332977548890664     
 -0.346904726438760      -0.360809067561975      -0.373610038150474     
 -0.384551410503274      -0.393307742927552      -0.399974142132271     
 -0.404848264225184      -0.408307609012992      -0.410694551358234     
 -0.311131152820982      -0.312413109298585      -0.315715036783636     
 -0.320679242556891      -0.327455303494920      -0.336317988149126     
 -0.347344596465979      -0.360204855103971      -0.374132032652054     
 -0.388036373775271      -0.400837344363770      -0.411778716716571     
 -0.420535049140850      -0.427201448345573      -0.432075570438479     
 -0.435534915226287      -0.437921857571533      -0.344920598840948     
 -0.346202555318561      -0.349504482803615      -0.354468688576865     
 -0.361244749514893      -0.370107434169095      -0.381134042485939     
 -0.393994301123938      -0.407921478672029      -0.421825819795243     
 -0.434626790383743      -0.445568162736540      -0.454324495160823     
 -0.460990894365548      -0.465865016458456      -0.469324361246262     
 -0.471711303591508      -0.384721419506456      -0.386003375984074     
 -0.389305303469128      -0.394269509242370      -0.401045570180393     
 -0.409908254834610      -0.420934863151461      -0.433795121789448     
 -0.447722299337542      -0.461626640460757      -0.474427611049253     
 -0.485368983402054      -0.494125315826336      -0.500791715031057     
 -0.505665837123959      -0.509125181911774      -0.511512124257003     
 -0.428820063039295      -0.430102019516906      -0.433403947001965     
 -0.438368152775209      -0.445144213713222      -0.454006898367443     
 -0.465033506684297      -0.477893765322283      -0.491820942870371     
 -0.505725283993577      -0.518526254582087      -0.529467626934885     
 -0.538223959359167      -0.544890358563896      -0.549764480656799     
 -0.553223825444605      -0.555610767789848      -0.474487341524734     
 -0.475769298002343      -0.479071225487400      -0.484035431260648     
 -0.490811492198672      -0.499674176852877      -0.510700785169734     
 -0.523561043807724      -0.537488221355798      -0.551392562479026     
 -0.564193533067511      -0.575134905420320      -0.583891237844601     
 -0.590557637049334      -0.595431759142232      -0.598891103930044     
 -0.601278046275287      -0.518585985057559      -0.519867941535180     
 -0.523169869020235      -0.528134074793485      -0.534910135731505     
 -0.543772820385714      -0.554799428702569      -0.567659687340558     
 -0.581586864888651      -0.595491206011858      -0.608292176600360     
 -0.619233548953163      -0.627989881377441      -0.634656280582169     
 -0.639530402675076      -0.642989747462881      -0.645376689808126     
 -0.558386805723076      -0.559668762200690      -0.562970689685739     
 -0.567934895458991      -0.574710956397017      -0.583573641051227     
 -0.594600249368079      -0.607460508006067      -0.621387685554159     
 -0.635292026677373      -0.648092997265872      -0.659034369618669     
 -0.667790702042951      -0.674457101247681      -0.679331223340585     
 -0.682790568128383      -0.685177510473638      -0.592176251743047     
 -0.593458208220659      -0.596760135705715      -0.601724341478965     
 -0.608500402416981      -0.617363087071194      -0.628389695388052     
 -0.641249954026040      -0.655177131574131      -0.669081472697347     
 -0.681882443285841      -0.692823815638642      -0.701580148062921     
 -0.708246547267651      -0.713120669360555      -0.716580014148351     
 -0.718966956493595      -0.619403557956344      -0.620685514433958     
 -0.623987441919015      -0.628951647692261      -0.635727708630288     
 -0.644590393284501      -0.655617001601340      -0.668477260239338     
 -0.682404437787429      -0.696308778910633      -0.709109749499143     
 -0.720051121851941      -0.728807454276221      -0.735473853480946     
 -0.740347975573852      -0.743807320361656      -0.746194262706892     
 -0.640435179147580      -0.641717135625189      -0.645019063110256     
 -0.649983268883501      -0.656759329821526      -0.665622014475738     
 -0.676648622792591      -0.689508881430557      -0.703436058978664     
 -0.717340400101872      -0.730141370690378      -0.741082743043162     
 -0.749839075467440      -0.756505474672179      -0.761379596765082     
 -0.764838941552896      -0.767225883898135      -0.656156657974144     
 -0.657438614451740      -0.660740541936801      -0.665704747710062     
 -0.672480808648085      -0.681343493302295      -0.692370101619149     
 -0.705230360257135      -0.719157537805218      -0.733061878928439     
 -0.745862849516923      -0.756804221869727      -0.765560554293997     
 -0.772226953498730      -0.777101075591651      -0.780560420379452     
 -0.782947362724703      -0.667622888750425      -0.668904845228035     
 -0.672206772713101      -0.677170978486328      -0.683947039424370     
 -0.692809724078557      -0.703836332395428      -0.716696591033414     
 -0.730623768581509      -0.744528109704719      -0.757329080293222     
 -0.768270452646028      -0.777026785070302      -0.783693184275034     
 -0.788567306367935      -0.792026651155729      -0.794413593500979     
 -0.675836308742802      -0.677118265220418      -0.680420192705476     
 -0.685384398478719      -0.692160459416745      -0.701023144070953     
 -0.712049752387804      -0.724910011025794      -0.738837188573880     
 -0.752741529697098      -0.765542500285594      -0.776483872638373     
 -0.785240205062675      -0.791906604267387      -0.796780726360311     
 -0.800240071148109      -0.802627013493362      -0.681644014668935     
 -0.682925971146542      -0.686227898631598      -0.691192104404848     
 -0.697968165342866      -0.706830849997070      -0.717857458313912     
 -0.730717716951916      -0.744644894499989      -0.758549235623211     
 -0.771350206211721      -0.782291578564519      -0.791047910988794     
 -0.797714310193526      -0.802588432286422      -0.806047777074240     
 -0.808434719419489     
 -0.374115123339687      -0.372936338750410      -0.369900150469243     
 -0.365335464096733      -0.359104740706950      -0.350955325128144     
 -0.340816138515415      -0.328990873803768      -0.316184555841715     
 -0.303399236428512      -0.291628488262698      -0.281567677821573     
 -0.273516055242659      -0.267386168007220      -0.262904315378285     
 -0.259723378742700      -0.257528537575152      -0.380431142652958     
 -0.379252358063685      -0.376216169782520      -0.371651483410006     
 -0.365420760020221      -0.357271344441416      -0.347132157828691     
 -0.335306893117040      -0.322500575154990      -0.309715255741786     
 -0.297944507575970      -0.287883697134850      -0.279832074555933     
 -0.273702187320493      -0.269220334691556      -0.266039398055973     
 -0.263844556888423      -0.389363433640096      -0.388184649050822     
 -0.385148460769654      -0.380583774397141      -0.374353051007355     
 -0.366203635428549      -0.356064448815830      -0.344239184104176     
 -0.331432866142125      -0.318647546728919      -0.306876798563107     
 -0.296815988121987      -0.288764365543070      -0.282634478307629     
 -0.278152625678693      -0.274971689043108      -0.272776847875560     
 -0.401833234273025      -0.400654449683747      -0.397618261402583     
 -0.393053575030070      -0.386822851640285      -0.378673436061479     
 -0.368534249448757      -0.356708984737108      -0.343902666775056     
 -0.331117347361846      -0.319346599196035      -0.309285788754912     
 -0.301234166175998      -0.295104278940558      -0.290622426311618     
 -0.287441489676036      -0.285246648508488      -0.418930719091446     
 -0.417751934502170      -0.414715746221003      -0.410151059848490     
 -0.403920336458704      -0.395770920879901      -0.385631734267172     
 -0.373806469555525      -0.361000151593473      -0.348214832180266     
 -0.336444084014453      -0.326383273573330      -0.318331650994417     
 -0.312201763758978      -0.307719911130042      -0.304538974494454     
 -0.302344133326907      -0.441803110931356      -0.440624326342081     
 -0.437588138060907      -0.433023451688398      -0.426792728298610     
 -0.418643312719805      -0.408504126107081      -0.396678861395431     
 -0.383872543433380      -0.371087224020175      -0.359316475854365     
 -0.349255665413241      -0.341204042834327      -0.335074155598884     
 -0.330592302969948      -0.327411366334364      -0.325216525166815     
 -0.471413458645077      -0.470234674055793      -0.467198485774625     
 -0.462633799402115      -0.456403076012334      -0.448253660433526     
 -0.438114473820799      -0.426289209109154      -0.413482891147100     
 -0.400697571733890      -0.388926823568080      -0.378866013126961     
 -0.370814390548045      -0.364684503312604      -0.360202650683669     
 -0.357021714048081      -0.354826872880533      -0.508160290588976     
 -0.506981505999700      -0.503945317718529      -0.499380631346021     
 -0.493149907956238      -0.485000492377431      -0.474861305764704     
 -0.463036041053060      -0.450229723090997      -0.437444403677796     
 -0.425673655511984      -0.415612845070861      -0.407561222491952     
 -0.401431335256506      -0.396949482627572      -0.393768545991987     
 -0.391573704824441      -0.551444636457217      -0.550265851867950     
 -0.547229663586782      -0.542664977214270      -0.536434253824483     
 -0.528284838245679      -0.518145651632946      -0.506320386921302     
 -0.493514068959250      -0.480728749546048      -0.468958001380235     
 -0.458897190939111      -0.450845568360199      -0.444715681124752     
 -0.440233828495813      -0.437052891860239      -0.434858050692686     
 -0.599402967644350      -0.598224183055078      -0.595187994773904     
 -0.590623308401391      -0.584392585011606      -0.576243169432799     
 -0.566103982820079      -0.554278718108423      -0.541472400146373     
 -0.528687080733168      -0.516916332567360      -0.506855522126230     
 -0.498803899547319      -0.492674012311877      -0.488192159682945     
 -0.485011223047359      -0.482816381879814      -0.649067226917734     
 -0.647888442328454      -0.644852254047288      -0.640287567674781     
 -0.634056844284995      -0.625907428706187      -0.615768242093456     
 -0.603942977381817      -0.591136659419756      -0.578351340006549     
 -0.566580591840738      -0.556519781399616      -0.548468158820699     
 -0.542338271585263      -0.537856418956320      -0.534675482320739     
 -0.532480641153191      -0.697025558104856      -0.695846773515584     
 -0.692810585234415      -0.688245898861904      -0.682015175472111     
 -0.673865759893303      -0.663726573280581      -0.651901308568933     
 -0.639094990606887      -0.626309671193676      -0.614538923027864     
 -0.604478112586745      -0.596426490007827      -0.590296602772394     
 -0.585814750143455      -0.582633813507868      -0.580438972340321     
 -0.740309903973103      -0.739131119383825      -0.736094931102658     
 -0.731530244730151      -0.725299521340359      -0.717150105761557     
 -0.707010919148834      -0.695185654437189      -0.682379336475135     
 -0.669594017061929      -0.657823268896113      -0.647762458454991     
 -0.639710835876078      -0.633580948640637      -0.629099096011700     
 -0.625918159376112      -0.623723318208574      -0.777056735917009     
 -0.775877951327735      -0.772841763046561      -0.768277076674052     
 -0.762046353284268      -0.753896937705459      -0.743757751092739     
 -0.731932486381088      -0.719126168419036      -0.706340849005829     
 -0.694570100840020      -0.684509290398892      -0.676457667819979     
 -0.670327780584545      -0.665845927955600      -0.662664991320013     
 -0.660470150152466      -0.806667083630722      -0.805488299041455     
 -0.802452110760288      -0.797887424387772      -0.791656700997982     
 -0.783507285419184      -0.773368098806450      -0.761542834094810     
 -0.748736516132756      -0.735951196719547      -0.724180448553735     
 -0.714119638112617      -0.706068015533703      -0.699938128298258     
 -0.695456275669325      -0.692275339033738      -0.690080497866187     
 -0.829539475470636      -0.828360690881355      -0.825324502600194     
 -0.820759816227685      -0.814529092837899      -0.806379677259094     
 -0.796240490646370      -0.784415225934710      -0.771608907972666     
 -0.758823588559451      -0.747052840393642      -0.736992029952518     
 -0.728940407373606      -0.722810520138158      -0.718328667509228     
 -0.715147730873646      -0.712952889706103      -0.846636960289054     
 -0.845458175699772      -0.842421987418609      -0.837857301046104     
 -0.831626577656312      -0.823477162077514      -0.813337975464784     
 -0.801512710753135      -0.788706392791083      -0.775921073377871     
 -0.764150325212060      -0.754089514770933      -0.746037892192023     
 -0.739908004956583      -0.735426152327650      -0.732245215692059     
 -0.730050374524519      -0.859106760921983      -0.857927976332708     
 -0.854891788051543      -0.850327101679022      -0.844096378289247     
 -0.835946962710432      -0.825807776097718      -0.813982511386057     
 -0.801176193424012      -0.788390874010796      -0.776620125844989     
 -0.766559315403877      -0.758507692824963      -0.752377805589521     
 -0.747895952960576      -0.744715016324996      -0.742520175157439     
 -0.868039051909118      -0.866860267319845      -0.863824079038676     
 -0.859259392666153      -0.853028669276381      -0.844879253697577     
 -0.834740067084848      -0.822914802373193      -0.810108484411141     
 -0.797323164997934      -0.785552416832129      -0.775491606391003     
 -0.767439983812090      -0.761310096576650      -0.756828243947719     
 -0.753647307312131      -0.751452466144579      -0.874355071222392     
 -0.873176286633119      -0.870140098351942      -0.865575411979434     
 -0.859344688589647      -0.851195273010844      -0.841056086398117     
 -0.829230821686465      -0.816424503724415      -0.803639184311213     
 -0.791868436145405      -0.781807625704281      -0.773756003125358     
 -0.767626115889922      -0.763144263260988      -0.759963326625407     
 -0.757768485457855     
  0.000000000000000E+000 -3.282172018590466E-004 -1.033620650049141E-003
 -2.198955220658941E-003 -4.476742922393904E-003 -7.979640656267073E-003
 -1.263026983295655E-002 -1.826709190868895E-002 -2.441396652989334E-002
 -3.056244072773302E-002 -3.622807327755116E-002 -4.107753596790794E-002
 -4.495244726653555E-002 -4.790767994332594E-002 -5.006842939802218E-002
 -5.160152297946802E-002 -5.266055883330620E-002  0.000000000000000E+000
 -3.282172018590466E-004 -1.033620650049141E-003 -2.198955220658941E-003
 -4.476742922393904E-003 -7.979640656267073E-003 -1.263026983295655E-002
 -1.826709190868895E-002 -2.441396652989334E-002 -3.056244072773302E-002
 -3.622807327755116E-002 -4.107753596790794E-002 -4.495244726653555E-002
 -4.790767994332594E-002 -5.006842939802218E-002 -5.160152297946802E-002
 -5.266055883330620E-002  0.000000000000000E+000 -3.282172018590466E-004
 -1.033620650049141E-003 -2.198955220658941E-003 -4.476742922393904E-003
 -7.979640656267073E-003 -1.263026983295655E-002 -1.826709190868895E-002
 -2.441396652989334E-002 -3.056244072773302E-002 -3.622807327755116E-002
 -4.107753596790794E-002 -4.495244726653555E-002 -4.790767994332594E-002
 -5.006842939802218E-002 -5.160152297946802E-002 -5.266055883330620E-002
  0.000000000000000E+000 -3.282172018590466E-004 -1.033620650049141E-003
 -2.198955220658941E-003 -4.476742922393904E-003 -7.979640656267073E-003
 -1.263026983295655E-002 -1.826709190868895E-002 -2.441396652989334E-002
 -3.056244072773302E-002 -3.622807327755116E-002 -4.107753596790794E-002
 -4.495244726653555E-002 -4.790767994332594E-002 -5.006842939802218E-002
 -5.160152297946802E-002 -5.266055883330620E-002  0.000000000000000E+000
 -3.282172018590466E-004 -1.033620650049141E-003 -2.198955220658941E-003
 -4.476742922393904E-003 -7.979640656267073E-003 -1.263026983295655E-002
 -1.826709190868895E-002 -2.441396652989334E-002 -3.056244072773302E-002
 -3.622807327755116E-002 -4.107753596790794E-002 -4.495244726653555E-002
 -4.790767994332594E-002 -5.006842939802218E-002 -5.160152297946802E-002
 -5.266055883330620E-002  0.000000000000000E+000 -3.282172018590466E-004
 -1.033620650049141E-003 -2.198955220658941E-003 -4.476742922393904E-003
 -7.979640656267073E-003 -1.263026983295655E-002 -1.826709190868895E-002
 -2.441396652989334E-002 -3.056244072773302E-002 -3.622807327755116E-002
 -4.107753596790794E-002 -4.495244726653555E-002 -4.790767994332594E-002
 -5.006842939802218E-002 -5.160152297946802E-002 -5.266055883330620E-002
  0.000000000000000E+000 -3.282172018590466E-004 -1.033620650049141E-003
 -2.198955220658941E-003 -4.476742922393904E-003 -7.979640656267073E-003
 -1.263026983295655E-002 -1.826709190868895E-002 -2.441396652989334E-002
 -3.056244072773302E-002 -3.622807327755116E-002 -4.107753596790794E-002
 -4.495244726653555E-002 -4.790767994332594E-002 -5.006842939802218E-002
 -5.160152297946802E-002 -5.266055883330620E-002  0.000000000000000E+000
 -3.282172018590466E-004 -1.033620650049141E-003 -2.198955220658941E-003
 -4.476742922393904E-003 -7.979640656267073E-003 -1.263026983295655E-002
 -1.826709190868895E-002 -2.441396652989334E-002 -3.056244072773302E-002
 -3.622807327755116E-002 -4.107753596790794E-002 -4.495244726653555E-002
 -4.790767994332594E-002 -5.006842939802218E-002 -5.160152297946802E-002
 -5.266055883330620E-002  0.000000000000000E+000 -3.282172018590466E-004
 -1.033620650049141E-003 -2.198955220658941E-003 -4.476742922393904E-003
 -7.979640656267073E-003 -1.263026983295655E-002 -1.826709190868895E-002
 -2.441396652989334E-002 -3.056244072773302E-002 -3.622807327755116E-002
 -4.107753596790794E-002 -4.495244726653555E-002 -4.790767994332594E-002
 -5.006842939802218E-002 -5.160152297946802E-002 -5.266055883330620E-002
  0.000000000000000E+000 -3.282172018590466E-004 -1.033620650049141E-003
 -2.198955220658941E-003 -4.476742922393904E-003 -7.979640656267073E-003
 -1.263026983295655E-002 -1.826709190868895E-002 -2.441396652989334E-002
 -3.056244072773302E-002 -3.622807327755116E-002 -4.107753596790794E-002
 -4.495244726653555E-002 -4.790767994332594E-002 -5.006842939802218E-002
 -5.160152297946802E-002 -5.266055883330620E-002  0.000000000000000E+000
 -3.282172018590466E-004 -1.033620650049141E-003 -2.198955220658941E-003
 -4.476742922393904E-003 -7.979640656267073E-003 -1.263026983295655E-002
 -1.826709190868895E-002 -2.441396652989334E-002 -3.056244072773302E-002
 -3.622807327755116E-002 -4.107753596790794E-002 -4.495244726653555E-002
 -4.790767994332594E-002 -5.006842939802218E-002 -5.160152297946802E-002
 -5.266055883330620E-002  0.000000000000000E+000 -3.282172018590466E-004
 -1.033620650049141E-003 -2.198955220658941E-003 -4.476742922393904E-003
 -7.979640656267073E-003 -1.263026983295655E-002 -1.826709190868895E-002
 -2.441396652989334E-002 -3.056244072773302E-002 -3.622807327755116E-002
 -4.107753596790794E-002 -4.495244726653555E-002 -4.790767994332594E-002
 -5.006842939802218E-002 -5.160152297946802E-002 -5.266055883330620E-002
  0.000000000000000E+000 -3.282172018590466E-004 -1.033620650049141E-003
 -2.198955220658941E-003 -4.476742922393904E-003 -7.979640656267073E-003
 -1.263026983295655E-002 -1.826709190868895E-002 -2.441396652989334E-002
 -3.056244072773302E-002 -3.622807327755116E-002 -4.107753596790794E-002
 -4.495244726653555E-002 -4.790767994332594E-002 -5.006842939802218E-002
 -5.160152297946802E-002 -5.266055883330620E-002  0.000000000000000E+000
 -3.282172018590466E-004 -1.033620650049141E-003 -2.198955220658941E-003
 -4.476742922393904E-003 -7.979640656267073E-003 -1.263026983295655E-002
 -1.826709190868895E-002 -2.441396652989334E-002 -3.056244072773302E-002
 -3.622807327755116E-002 -4.107753596790794E-002 -4.495244726653555E-002
 -4.790767994332594E-002 -5.006842939802218E-002 -5.160152297946802E-002
 -5.266055883330620E-002  0.000000000000000E+000 -3.282172018590466E-004
 -1.033620650049141E-003 -2.198955220658941E-003 -4.476742922393904E-003
 -7.979640656267073E-003 -1.263026983295655E-002 -1.826709190868895E-002
 -2.441396652989334E-002 -3.056244072773302E-002 -3.622807327755116E-002
 -4.107753596790794E-002 -4.495244726653555E-002 -4.790767994332594E-002
 -5.006842939802218E-002 -5.160152297946802E-002 -5.266055883330620E-002
  0.000000000000000E+000 -3.282172018590466E-004 -1.033620650049141E-003
 -2.198955220658941E-003 -4.476742922393904E-003 -7.979640656267073E-003
 -1.263026983295655E-002 -1.826709190868895E-002 -2.441396652989334E-002
 -3.056244072773302E-002 -3.622807327755116E-002 -4.107753596790794E-002
 -4.495244726653555E-002 -4.790767994332594E-002 -5.006842939802218E-002
 -5.160152297946802E-002 -5.266055883330620E-002  0.000000000000000E+000
 -3.282172018590466E-004 -1.033620650049141E-003 -2.198955220658941E-003
 -4.476742922393904E-003 -7.979640656267073E-003 -1.263026983295655E-002
 -1.826709190868895E-002 -2.441396652989334E-002 -3.056244072773302E-002
 -3.622807327755116E-002 -4.107753596790794E-002 -4.495244726653555E-002
 -4.790767994332594E-002 -5.006842939802218E-002 -5.160152297946802E-002
 -5.266055883330620E-002  0.000000000000000E+000 -3.282172018590466E-004
 -1.033620650049141E-003 -2.198955220658941E-003 -4.476742922393904E-003
 -7.979640656267073E-003 -1.263026983295655E-002 -1.826709190868895E-002
 -2.441396652989334E-002 -3.056244072773302E-002 -3.622807327755116E-002
 -4.107753596790794E-002 -4.495244726653555E-002 -4.790767994332594E-002
 -5.006842939802218E-002 -5.160152297946802E-002 -5.266055883330620E-002
  0.000000000000000E+000 -3.282172018590466E-004 -1.033620650049141E-003
 -2.198955220658941E-003 -4.476742922393904E-003 -7.979640656267073E-003
 -1.263026983295655E-002 -1.826709190868895E-002 -2.441396652989334E-002
 -3.056244072773302E-002 -3.622807327755116E-002 -4.107753596790794E-002
 -4.495244726653555E-002 -4.790767994332594E-002 -5.006842939802218E-002
 -5.160152297946802E-002 -5.266055883330620E-002  0.000000000000000E+000
 -3.282172018590466E-004 -1.033620650049141E-003 -2.198955220658941E-003
 -4.476742922393904E-003 -7.979640656267073E-003 -1.263026983295655E-002
 -1.826709190868895E-002 -2.441396652989334E-002 -3.056244072773302E-002
 -3.622807327755116E-002 -4.107753596790794E-002 -4.495244726653555E-002
 -4.790767994332594E-002 -5.006842939802218E-002 -5.160152297946802E-002
 -5.266055883330620E-002
 -0.100557682852181      -0.195595531464066      -0.223917412053135     
 -0.164351096566130      -9.211755753822598E-002 -3.312192904461938E-002
  1.330825256231413E-002  3.754876839612446E-002  4.709708000988148E-002
  4.560737428893055E-002  3.675836780726063E-002  2.331768509019005E-002
  1.027363304984665E-002 -1.407579640155551E-003 -1.020377529591626E-002
 -1.528804587142047E-002 -0.113266052169337      -0.225537061232273     
 -0.264445895478576      -0.193974103140464      -9.343470083452193E-002
 -2.264875366102814E-003  7.244415776758563E-002  0.115171153600640     
  0.134410863572523       0.135607371338617       0.124627741059723     
  0.106476241132312       8.851464310935801E-002  7.289700368844074E-002
  6.169238774073127E-002  5.560545395346936E-002 -0.104368383767882     
 -0.208340344054866      -0.238395308014126      -0.152562807804442     
 -2.831188224775633E-002  9.198059565043307E-002  0.195182323718260     
  0.260006553962745       0.293614793694431       0.302369200110426     
  0.294130241698621       0.276174944018127       0.257830142090058     
  0.242064414709405       0.230964433795582       0.225062228888175     
 -7.699502282748406E-002 -0.152330882731010      -0.154483015801628     
 -3.701363872448284E-002  0.121894381586232       0.278810375311359     
  0.417772802235857       0.512863360053713       0.569192143048790     
  0.593343526762581       0.594932710530494       0.583253405391019     
  0.569129941415527       0.556048497512655       0.546501944776794     
  0.541421392389992      -2.741947224082032E-002 -5.013850985777622E-002
 -1.317234010214904E-003  0.171192179651782       0.386682972860999     
  0.599282367618064       0.790676423974550       0.931118188449873     
   1.02393098907371        1.07554542392089        1.09685708402067     
   1.09868908416235        1.09334807104665        1.08549671431060     
   1.07890331302643        1.07529030664530       5.128437070249595E-002
  0.112517249648358       0.242487321293701       0.501495603686434     
  0.805309903672821        1.10398339391107        1.37563683563463     
   1.58587258866768        1.73606744678108        1.83211670547652     
   1.88581879595909        1.90960414669099        1.91822275002029     
   1.91868314676601        1.91677413788939        1.91536448654226     
  0.167325779662442       0.352624321356037       0.602207030414191     
  0.987760793702290        1.42091687774204        1.84609030666132     
   2.23604463496208        2.54969510304258        2.78532694283514     
   2.94763835657798        3.04938743981323        3.10550415954522     
   3.13468441893690        3.14744373405548        3.15233912473712     
   3.15399072911937       0.326743521015071       0.682648547870089     
   1.09619020519255        1.65406469993391        2.26342126651499     
   2.86149161070258        3.41369135980717        3.86978583406114     
   4.22336628940524        4.47717432203807        4.64526190639192     
   4.74618742263683        4.80402549330371        4.83388918016273     
   4.84807061974518        4.85379232768652       0.527421061253662     
   1.09811866732692        1.71741211457037        2.49027415676270     
   3.31925233711549        4.13308528501118        4.88811443191179     
   5.52289106760741        6.02498419307406        6.39456869283265     
   6.64721117166225        6.80581286399672        6.90079229224809     
   6.95279704081569        6.97888518054554        6.98976920145171     
  0.752278170299458        1.56353700040057        2.41265810316519     
   3.42466214146508        4.49745541487226        5.55062723435375     
   6.53072091441136        7.36435551469355        8.03272527648194     
   8.53319035748762        8.88265254600329        9.10823261665763     
   9.24681064992829        9.32494600948633        9.36509599389884     
   9.38207357379952       0.968089519004270        2.00992513820827     
   3.07895096741125        4.31936030034870        5.62416163661366     
   6.90414509182001        8.09706199031332        9.11914198459012     
   9.94655518965758        10.5742843012389        11.0198939181809     
   11.3134732737394        11.4972033269471        11.6028375098982     
   11.6579575585485        11.6814759935939        1.13629455431223     
   2.35716498420614        3.59662668152428        5.01410871641901     
   6.49695257407772        7.94845574946163        9.30049708630538     
   10.4631601789109        11.4112702161335        12.1390691868396     
   12.6637618053373        13.0158366959645        13.2400303778523     
   13.3711964053667        13.4406151535361        13.4705108653212     
   1.23044082295350        2.55011288133438        3.88286308687217     
   5.39710155066064        6.97310236387532        8.50832622823267     
   9.93287770669498        11.1571352399749        12.1607587326426     
   12.9408005562170        13.5134112153002        13.9057543839685     