 Title = "Wing and Wake"
 VARIABLES = "X" "Y" "Z" "GAM" "skew"
 Zone I=    5 J=   27 K=1  T="Blade 01"
 DATAPACKING=BLOCK
 VARLOCATION=([4]=CELLCENTERED,[5]=CELLCENTERED)
  -2.25000000000000       -2.00095132547706       -1.75190265095413     
  -1.50285397643119       -1.25380530190825       -2.25000000000000     
  -2.00095132547706       -1.75190265095413       -1.50285397643119     
  -1.25380530190825       -2.25000000000000       -2.00095132547706     
  -1.75190265095413       -1.50285397643119       -1.25380530190825     
  -2.25000000000000       -2.00095132547706       -1.75190265095413     
  -1.50285397643119       -1.25380530190825       -2.25000000000000     
  -2.00095132547706       -1.75190265095413       -1.50285397643119     
  -1.25380530190825       -2.25000000000000       -2.00095132547706     
  -1.75190265095413       -1.50285397643119       -1.25380530190825     
  -2.25000000000000       -2.00095132547706       -1.75190265095413     
  -1.50285397643119       -1.25380530190825       -2.25000000000000     
  -2.00095132547706       -1.75190265095413       -1.50285397643119     
  -1.25380530190825       -2.25000000000000       -2.00095132547706     
  -1.75190265095413       -1.50285397643119       -1.25380530190825     
  -2.25000000000000       -2.00095132547706       -1.75190265095413     
  -1.50285397643119       -1.25380530190825       -2.25000000000000     
  -2.00095132547706       -1.75190265095413       -1.50285397643119     
  -1.25380530190825       -2.25000000000000       -2.00095132547706     
  -1.75190265095413       -1.50285397643119       -1.25380530190825     
  -2.25000000000000       -2.00095132547706       -1.75190265095413     
  -1.50285397643119       -1.25380530190825       -2.25000000000000     
  -2.00095132547706       -1.75190265095413       -1.50285397643119     
  -1.25380530190825       -2.25000000000000       -2.00095132547706     
  -1.75190265095413       -1.50285397643119       -1.25380530190825     
  -2.25000000000000       -2.00095132547706       -1.75190265095413     
  -1.50285397643119       -1.25380530190825       -2.25000000000000     
  -2.00095132547706       -1.75190265095413       -1.50285397643119     
  -1.25380530190825       -2.25000000000000       -2.00095132547706     
  -1.75190265095413       -1.50285397643119       -1.25380530190825     
  -2.25000000000000       -2.00095132547706       -1.75190265095413     
  -1.50285397643119       -1.25380530190825       -2.25000000000000     
  -2.00095132547706       -1.75190265095413       -1.50285397643119     
  -1.25380530190825       -2.25000000000000       -2.00095132547706     
  -1.75190265095413       -1.50285397643119       -1.25380530190825     
  -2.25000000000000       -2.00095132547706       -1.75190265095413     
  -1.50285397643119       -1.25380530190825       -2.25000000000000     
  -2.00095132547706       -1.75190265095413       -1.50285397643119     
  -1.25380530190825       -2.25000000000000       -2.00095132547706     
  -1.75190265095413       -1.50285397643119       -1.25380530190825     
  -2.25000000000000       -2.00095132547706       -1.75190265095413     
  -1.50285397643119       -1.25380530190825       -2.25000000000000     
  -2.00095132547706       -1.75190265095413       -1.50285397643119     
  -1.25380530190825       -2.25000000000000       -2.00095132547706     
  -1.75190265095413       -1.50285397643119       -1.25380530190825     
  0.000000000000000E+000  0.000000000000000E+000  0.000000000000000E+000
  0.000000000000000E+000  0.000000000000000E+000  2.916450360778500E-002
  2.916450360778500E-002  2.916450360778500E-002  2.916450360778500E-002
  2.916450360778500E-002  0.116232730295792       0.116232730295792     
  0.116232730295792       0.116232730295792       0.116232730295792     
  0.259935029258341       0.259935029258341       0.259935029258341     
  0.259935029258341       0.259935029258341       0.458175897387161     
  0.458175897387161       0.458175897387161       0.458175897387161     
  0.458175897387161       0.708064536425374       0.708064536425374     
  0.708064536425374       0.708064536425374       0.708064536425374     
   1.00595700731559        1.00595700731559        1.00595700731559     
   1.00595700731559        1.00595700731559        1.34750936703682     
   1.34750936703682        1.34750936703682        1.34750936703682     
   1.34750936703682        1.72774101307538        1.72774101307538     
   1.72774101307538        1.72774101307538        1.72774101307538     
   2.14110731182493        2.14110731182493        2.14110731182493     
   2.14110731182493        2.14110731182493        2.58158045182986     
   2.58158045182986        2.58158045182986        2.58158045182986     
   2.58158045182986        3.04273734284977        3.04273734284977     
   3.04273734284977        3.04273734284977        3.04273734284977     
   3.51785327897871        3.51785327897871        3.51785327897871     
   3.51785327897871        3.51785327897871        4.00000000000000     
   4.00000000000000        4.00000000000000        4.00000000000000     
   4.00000000000000        4.48214672102129        4.48214672102129     
   4.48214672102129        4.48214672102129        4.48214672102129     
   4.95726265715023        4.95726265715023        4.95726265715023     
   4.95726265715023        4.95726265715023        5.41841954817014     
   5.41841954817014        5.41841954817014        5.41841954817014     
   5.41841954817014        5.85889268817507        5.85889268817507     
   5.85889268817507        5.85889268817507        5.85889268817507     
   6.27225898692462        6.27225898692462        6.27225898692462     
   6.27225898692462        6.27225898692462        6.65249063296318     
   6.65249063296318        6.65249063296318        6.65249063296318     
   6.65249063296318        6.99404299268440        6.99404299268440     
   6.99404299268440        6.99404299268440        6.99404299268440     
   7.29193546357463        7.29193546357463        7.29193546357463     
   7.29193546357463        7.29193546357463        7.54182410261284     
   7.54182410261284        7.54182410261284        7.54182410261284     
   7.54182410261284        7.74006497074166        7.74006497074166     
   7.74006497074166        7.74006497074166        7.74006497074166     
   7.88376726970421        7.88376726970421        7.88376726970421     
   7.88376726970421        7.88376726970421        7.97083549639222     
   7.97083549639222        7.97083549639222        7.97083549639222     
   7.97083549639222        8.00000000000000        8.00000000000000     
   8.00000000000000        8.00000000000000        8.00000000000000     
  0.000000000000000E+000 -2.178893568691454E-002 -4.357787137382908E-002
 -6.536680706074363E-002 -8.715574274765817E-002  0.000000000000000E+000
 -2.178893568691454E-002 -4.357787137382908E-002 -6.536680706074363E-002
 -8.715574274765817E-002  0.000000000000000E+000 -2.178893568691454E-002
 -4.357787137382908E-002 -6.536680706074363E-002 -8.715574274765817E-002
  0.000000000000000E+000 -2.178893568691454E-002 -4.357787137382908E-002
 -6.536680706074363E-002 -8.715574274765817E-002  0.000000000000000E+000
 -2.178893568691454E-002 -4.357787137382908E-002 -6.536680706074363E-002
 -8.715574274765817E-002  0.000000000000000E+000 -2.178893568691454E-002
 -4.357787137382908E-002 -6.536680706074363E-002 -8.715574274765817E-002
  0.000000000000000E+000 -2.178893568691454E-002 -4.357787137382908E-002
 -6.536680706074363E-002 -8.715574274765817E-002  0.000000000000000E+000
 -2.178893568691454E-002 -4.357787137382908E-002 -6.536680706074363E-002
 -8.715574274765817E-002  0.000000000000000E+000 -2.178893568691454E-002
 -4.357787137382908E-002 -6.536680706074363E-002 -8.715574274765817E-002
  0.000000000000000E+000 -2.178893568691454E-002 -4.357787137382908E-002
 -6.536680706074363E-002 -8.715574274765817E-002  0.000000000000000E+000
 -2.178893568691454E-002 -4.357787137382908E-002 -6.536680706074363E-002
 -8.715574274765817E-002  0.000000000000000E+000 -2.178893568691454E-002
 -4.357787137382908E-002 -6.536680706074363E-002 -8.715574274765817E-002
  0.000000000000000E+000 -2.178893568691454E-002 -4.357787137382908E-002
 -6.536680706074363E-002 -8.715574274765817E-002  0.000000000000000E+000
 -2.178893568691454E-002 -4.357787137382908E-002 -6.536680706074363E-002
 -8.715574274765817E-002  0.000000000000000E+000 -2.178893568691454E-002
 -4.357787137382908E-002 -6.536680706074363E-002 -8.715574274765817E-002
  0.000000000000000E+000 -2.178893568691454E-002 -4.357787137382908E-002
 -6.536680706074363E-002 -8.715574274765817E-002  0.000000000000000E+000
 -2.178893568691454E-002 -4.357787137382908E-002 -6.536680706074363E-002
 -8.715574274765817E-002  0.000000000000000E+000 -2.178893568691454E-002
 -4.357787137382908E-002 -6.536680706074363E-002 -8.715574274765817E-002
  0.000000000000000E+000 -2.178893568691454E-002 -4.357787137382908E-002
 -6.536680706074363E-002 -8.715574274765817E-002  0.000000000000000E+000
 -2.178893568691454E-002 -4.357787137382908E-002 -6.536680706074363E-002
 -8.715574274765817E-002  0.000000000000000E+000 -2.178893568691454E-002
 -4.357787137382908E-002 -6.536680706074363E-002 -8.715574274765817E-002
  0.000000000000000E+000 -2.178893568691454E-002 -4.357787137382908E-002
 -6.536680706074363E-002 -8.715574274765817E-002  0.000000000000000E+000
 -2.178893568691454E-002 -4.357787137382908E-002 -6.536680706074363E-002
 -8.715574274765817E-002  0.000000000000000E+000 -2.178893568691454E-002
 -4.357787137382908E-002 -6.536680706074363E-002 -8.715574274765817E-002
  0.000000000000000E+000 -2.178893568691454E-002 -4.357787137382908E-002
 -6.536680706074363E-002 -8.715574274765817E-002  0.000000000000000E+000
 -2.178893568691454E-002 -4.357787137382908E-002 -6.536680706074363E-002
 -8.715574274765817E-002  0.000000000000000E+000 -2.178893568691454E-002
 -4.357787137382908E-002 -6.536680706074363E-002 -8.715574274765817E-002
  0.230712513382211       0.276839278252671       0.279465750046670     
  0.242277746373013       0.384942316706334       0.466988710596888     
  0.471663444196699       0.405586968791168       0.514548614101165     
  0.638324405004878       0.645464280945790       0.545540925627165     
  0.606432839876139       0.767438905131078       0.777007695078610     
  0.646443801519007       0.667163341033165       0.854436342886474     
  0.865874120589193       0.713453408713656       0.705229015949774     
  0.908493995511754       0.921109842411858       0.755365891896192     
  0.728039269867180       0.940352233616931       0.953631966954452     
  0.780372615788252       0.741294882614942       0.958579125533084     
  0.972216090160566       0.794840886141348       0.748884586124171     
  0.968884504533352       0.982711944071941       0.803094027768713     
  0.753209795400550       0.974700414816875       0.988630181865272     
  0.807783563818515       0.755652864292680       0.977961784266856     
  0.991946784324338       0.810426700105652       0.756969458125644     
  0.979710579192694       0.993724409523765       0.811849014552736     
  0.757546593652629       0.980474918715444       0.994501150462906     
  0.812471960949086       0.757546593652630       0.980474918715443     
  0.994501150462906       0.812471960949085       0.756969458125644     
  0.979710579192695       0.993724409523766       0.811849014552735     
  0.755652864292680       0.977961784266857       0.991946784324338     
  0.810426700105652       0.753209795400550       0.974700414816875     
  0.988630181865272       0.807783563818515       0.748884586124171     
  0.968884504533352       0.982711944071941       0.803094027768713     
  0.741294882614942       0.958579125533084       0.972216090160566     
  0.794840886141348       0.728039269867180       0.940352233616930     
  0.953631966954452       0.780372615788252       0.705229015949774     
  0.908493995511754       0.921109842411858       0.755365891896192     
  0.667163341033165       0.854436342886474       0.865874120589193     
  0.713453408713656       0.606432839876138       0.767438905131077     
  0.777007695078610       0.646443801519006       0.514548614101164     
  0.638324405004876       0.645464280945788       0.545540925627164     
  0.384942316706333       0.466988710596887       0.471663444196698     
  0.405586968791168       0.230712513382211       0.276839278252670     
  0.279465750046669       0.242277746373012     
  0.000000000000000E+000  0.000000000000000E+000  0.000000000000000E+000
  0.000000000000000E+000  0.000000000000000E+000  0.000000000000000E+000
  0.000000000000000E+000  0.000000000000000E+000  0.000000000000000E+000
  0.000000000000000E+000  0.000000000000000E+000  0.000000000000000E+000
  0.000000000000000E+000  0.000000000000000E+000  0.000000000000000E+000
  0.000000000000000E+000  0.000000000000000E+000  0.000000000000000E+000
  0.000000000000000E+000  0.000000000000000E+000  0.000000000000000E+000
  0.000000000000000E+000  0.000000000000000E+000  0.000000000000000E+000
  0.000000000000000E+000  0.000000000000000E+000  0.000000000000000E+000
  0.000000000000000E+000  0.000000000000000E+000  0.000000000000000E+000
  0.000000000000000E+000  0.000000000000000E+000  0.000000000000000E+000
  0.000000000000000E+000  0.000000000000000E+000  0.000000000000000E+000
  0.000000000000000E+000  0.000000000000000E+000  0.000000000000000E+000
  0.000000000000000E+000  0.000000000000000E+000  0.000000000000000E+000
  0.000000000000000E+000  0.000000000000000E+000  0.000000000000000E+000
  0.000000000000000E+000  0.000000000000000E+000  0.000000000000000E+000
  0.000000000000000E+000  0.000000000000000E+000  0.000000000000000E+000
  0.000000000000000E+000  0.000000000000000E+000  0.000000000000000E+000
  0.000000000000000E+000  0.000000000000000E+000  0.000000000000000E+000
  0.000000000000000E+000  0.000000000000000E+000  0.000000000000000E+000
  0.000000000000000E+000  0.000000000000000E+000  0.000000000000000E+000
  0.000000000000000E+000  0.000000000000000E+000  0.000000000000000E+000
  0.000000000000000E+000  0.000000000000000E+000  0.000000000000000E+000
  0.000000000000000E+000  0.000000000000000E+000  0.000000000000000E+000
  0.000000000000000E+000  0.000000000000000E+000  0.000000000000000E+000
  0.000000000000000E+000  0.000000000000000E+000  0.000000000000000E+000
  0.000000000000000E+000  0.000000000000000E+000  0.000000000000000E+000
  0.000000000000000E+000  0.000000000000000E+000  0.000000000000000E+000
  0.000000000000000E+000  0.000000000000000E+000  0.000000000000000E+000
  0.000000000000000E+000  0.000000000000000E+000  0.000000000000000E+000
  0.000000000000000E+000  0.000000000000000E+000  0.000000000000000E+000
  0.000000000000000E+000  0.000000000000000E+000  0.000000000000000E+000
  0.000000000000000E+000  0.000000000000000E+000  0.000000000000000E+000
  0.000000000000000E+000  0.000000000000000E+000  0.000000000000000E+000
  0.000000000000000E+000  0.000000000000000E+000
 Zone I=   21 J=   27 K=1  T="NearWake"
 DATAPACKING=BLOCK
 VARLOCATION=([4]=CELLCENTERED, [5]=CELLCENTERED)
  -1.23512665131903       -1.17262665131903       -1.11007560072567     
  -1.04760317013187      -0.985133589598960      -0.922661329033407     
 -0.860186131446092      -0.797708360761314      -0.735228406057384     
 -0.672746596048308      -0.610263197411900      -0.547778426129084     
 -0.485292458578066      -0.422805440234141      -0.360317491911534     
 -0.297828713260512      -0.235339181090763      -0.172848932131457     
 -0.110357889390526      -4.786556873745754E-002  1.463012674552402E-002
  -1.23512665131903       -1.17262665131903       -1.11012903198267     
  -1.04769722277805      -0.985249904455041      -0.922791388939517     
 -0.860325470057393      -0.797854363189499      -0.735379412140786     
 -0.672901486527941      -0.610421182337093      -0.547938927563074     
 -0.485455041237541      -0.422969768144446      -0.360483299602299     
 -0.297995784044946      -0.235507323693219      -0.173017934248288     
 -0.110527375177136      -4.803448625083501E-002  1.446547760769313E-002
  -1.23512665131903       -1.17262665131903       -1.11019959000005     
  -1.04789619071994      -0.985523342365067      -0.923110926405047     
 -0.860675853746359      -0.798226658901927      -0.735767988721117     
 -0.673302583332289      -0.610832170767330      -0.548357902070464     
 -0.485880578689841      -0.423400778558082      -0.360918928015028     
 -0.298435338177002      -0.235950200008326      -0.173463479401044     
 -0.110974472980163      -4.848009649201991E-002  1.403179519197113E-002
  -1.23512665131903       -1.17262665131903       -1.11021053333192     
  -1.04805340137095      -0.985781675898175      -0.923437775411043     
 -0.861050813066539      -0.798636690110877      -0.736204435804055     
 -0.673759481018874      -0.611305269450497      -0.548844086058297     
 -0.486377506099201      -0.423906649982560      -0.361432330927735     
 -0.298955131370016      -0.236475398373915      -0.173993049064017     
 -0.111506745371157      -4.901077259184847E-002  1.351667219946437E-002
  -1.23512665131903       -1.17262665131903       -1.11020268626158     
  -1.04815879142851      -0.985972260102028      -0.923691257800869     
 -0.861351874673098      -0.798974577756759      -0.736571385832216     
 -0.674149753273942      -0.611714533958233      -0.549269019064626     
 -0.486815515973620      -0.424355686123506      -0.361890745296453     
 -0.299421567470657      -0.236948670791206      -0.174471918401010     
 -0.111989282814928      -4.949229953293952E-002  1.305026592553680E-002
  -1.23512665131903       -1.17262665131903       -1.11019252847497     
  -1.04822574323966      -0.986097605357563      -0.923860854920240     
 -0.861556295392151      -0.799207204430221      -0.736827320600912     
 -0.674425225684835      -0.612006560936390      -0.549575194861165     
 -0.487133872946096      -0.424684596365974      -0.362228845600940     
 -0.299767691984822      -0.237301762817194      -0.174830840551944     
 -0.112352271681595      -4.985527824657193E-002  1.269876965842566E-002
  -1.23512665131903       -1.17262665131903       -1.11018432533902     
  -1.04826594320454      -0.986173905726229      -0.923964351096479     
 -0.861681324999234      -0.799349971712225      -0.736985113115085     
 -0.674595993778024      -0.612188685194809      -0.549767351834842     
 -0.487334953747854      -0.424893654178142      -0.362445057846987     
 -0.299990324653217      -0.237530114842822      -0.175064108265406     
 -0.112589154222479      -5.009280050169007E-002  1.246863194452958E-002
  -1.23512665131903       -1.17262665131903       -1.11017864347504     
  -1.04828890826839      -0.986217796817112      -0.924023704721970     
 -0.861752767065108      -0.799431330180151      -0.737074909208805     
 -0.674693164482733      -0.612292427074254      -0.549877029781619     
 -0.487450045788415      -0.425013716653616      -0.362569701217023     
 -0.300119191004474      -0.237662841635525      -0.175200238293754     
 -0.112727877726969      -5.023220962807640E-002  1.233361229871292E-002
  -1.23512665131903       -1.17262665131903       -1.11017498882591     
  -1.04830162573748      -0.986242214027387      -0.924056547642103     
 -0.861792039535016      -0.799475776646017      -0.737123705056963     
 -0.674745745312069      -0.612348391027612      -0.549936079245639     
 -0.487511951239089      -0.425078293258766      -0.362636792242661     
 -0.300188652398082      -0.237734517975309      -0.175273905364104     
 -0.112803083377736      -5.030782662156109E-002  1.226059673662437E-002
  -1.23512665131903       -1.17262665131903       -1.11017272719681     
  -1.04830858154821      -0.986255619491574      -0.924074468450092     
 -0.861813299193015      -0.799499641393856      -0.737149701591974     
 -0.674773559677000      -0.612377810221458      -0.549966955880508     
 -0.487544181193152      -0.425111800846495      -0.362671519400932     
 -0.300224548516586      -0.237771524468058      -0.175311920333912     
 -0.112841866743263      -5.034673977832842E-002  1.222328201891250E-002
  -1.23512665131903       -1.17262665131903       -1.11017136268524     
  -1.04831237419801      -0.986262953856027      -0.924084214581945     
 -0.861824767849141      -0.799512402494280      -0.737163478928508     
 -0.674788172304617      -0.612393138449426      -0.549982920534516     
 -0.487560730356809      -0.425128900922353      -0.362689148462829     
 -0.300242689982825      -0.237790157647238      -0.175330999388158     
 -0.112861265515300      -5.036610299819783E-002  1.220492818222879E-002
  -1.23512665131903       -1.17262665131903       -1.11017057047023     
  -1.04831441006584      -0.986266902679834      -0.924089434917694     
 -0.861830866632218      -0.799519133407530      -0.737170683356743     
 -0.674795746404757      -0.612401013997276      -0.549991053205125     
 -0.487569092190714      -0.425137475203504      -0.362697925866291     
 -0.300251664879189      -0.237799322622279      -0.175340333258197     
 -0.112870702363780      -5.037544960370439E-002  1.219620651710751E-002
  -1.23512665131903       -1.17262665131903       -1.11017015961259     
  -1.04831541066336      -0.986268847857850      -0.924091996772459     
 -0.861833843413222      -0.799522398115289      -0.737174153848541     
 -0.674799368705403      -0.612404752581589      -0.549994885043283     
 -0.487573002911463      -0.425141456475534      -0.362701973417878     
 -0.300255776590552      -0.237803495707649      -0.175344558161373     
 -0.112874947118904      -5.037961839003930E-002  1.219238033676421E-002
  -1.23512665131903       -1.17262665131903       -1.11017003256546     
  -1.04831571172892      -0.986269433850461      -0.924092767010490     
 -0.861834735807321      -0.799523373475189      -0.737175186751814     
 -0.674800442397423      -0.612405856004752      -0.549996011015674     
 -0.487574146952365      -0.425142616002702      -0.362703147139187     
 -0.300256963917048      -0.237804695888027      -0.175345768414681     
 -0.112876157868153      -5.038080066490598E-002  1.219130734211971E-002
  -1.23512665131903       -1.17262665131903       -1.11017015961259     
  -1.04831541066336      -0.986268847857850      -0.924091996772459     
 -0.861833843413222      -0.799522398115289      -0.737174153848541     
 -0.674799368705403      -0.612404752581589      -0.549994885043283     
 -0.487573002911463      -0.425141456475534      -0.362701973417878     
 -0.300255776590552      -0.237803495707649      -0.175344558161373     
 -0.112874947118904      -5.037961839003930E-002  1.219238033676421E-002
  -1.23512665131903       -1.17262665131903       -1.11017057047023     
  -1.04831441006584      -0.986266902679834      -0.924089434917694     
 -0.861830866632218      -0.799519133407530      -0.737170683356743     
 -0.674795746404757      -0.612401013997276      -0.549991053205125     
 -0.487569092190714      -0.425137475203504      -0.362697925866291     
 -0.300251664879189      -0.237799322622279      -0.175340333258197     
 -0.112870702363780      -5.037544960370438E-002  1.219620651710751E-002
  -1.23512665131903       -1.17262665131903       -1.11017136268524     
  -1.04831237419801      -0.986262953856027      -0.924084214581945     
 -0.861824767849141      -0.799512402494280      -0.737163478928508     
 -0.674788172304617      -0.612393138449426      -0.549982920534516     
 -0.487560730356809      -0.425128900922353      -0.362689148462829     
 -0.300242689982825      -0.237790157647238      -0.175330999388158     
 -0.112861265515300      -5.036610299819785E-002  1.220492818222879E-002
  -1.23512665131903       -1.17262665131903       -1.11017272719681     
  -1.04830858154821      -0.986255619491574      -0.924074468450092     
 -0.861813299193015      -0.799499641393856      -0.737149701591974     
 -0.674773559677000      -0.612377810221458      -0.549966955880508     
 -0.487544181193152      -0.425111800846495      -0.362671519400932     
 -0.300224548516586      -0.237771524468058      -0.175311920333912     
 -0.112841866743263      -5.034673977832842E-002  1.222328201891250E-002
  -1.23512665131903       -1.17262665131903       -1.11017498882591     
  -1.04830162573748      -0.986242214027387      -0.924056547642103     
 -0.861792039535016      -0.799475776646017      -0.737123705056963     
 -0.674745745312069      -0.612348391027612      -0.549936079245639     
 -0.487511951239089      -0.425078293258766      -0.362636792242661     
 -0.300188652398082      -0.237734517975309      -0.175273905364104     
 -0.112803083377736      -5.030782662156109E-002  1.226059673662437E-002
  -1.23512665131903       -1.17262665131903       -1.11017864347504     
  -1.04828890826839      -0.986217796817112      -0.924023704721970     
 -0.861752767065108      -0.799431330180151      -0.737074909208805     
 -0.674693164482733      -0.612292427074254      -0.549877029781619     
 -0.487450045788415      -0.425013716653616      -0.362569701217023     
 -0.300119191004474      -0.237662841635525      -0.175200238293754     
 -0.112727877726969      -5.023220962807640E-002  1.233361229871292E-002
  -1.23512665131903       -1.17262665131903       -1.11018432533902     
  -1.04826594320454      -0.986173905726229      -0.923964351096479     
 -0.861681324999234      -0.799349971712225      -0.736985113115085     
 -0.674595993778024      -0.612188685194809      -0.549767351834842     
 -0.487334953747854      -0.424893654178142      -0.362445057846987     
 -0.299990324653217      -0.237530114842822      -0.175064108265406     
 -0.112589154222479      -5.009280050169007E-002  1.246863194452958E-002
  -1.23512665131903       -1.17262665131903       -1.11019252847497     
  -1.04822574323966      -0.986097605357563      -0.923860854920240     
 -0.861556295392151      -0.799207204430221      -0.736827320600912     
 -0.674425225684835      -0.612006560936390      -0.549575194861165     
 -0.487133872946096      -0.424684596365974      -0.362228845600940     
 -0.299767691984822      -0.237301762817194      -0.174830840551944     
 -0.112352271681595      -4.985527824657193E-002  1.269876965842566E-002
  -1.23512665131903       -1.17262665131903       -1.11020268626158     
  -1.04815879142851      -0.985972260102028      -0.923691257800869     
 -0.861351874673098      -0.798974577756759      -0.736571385832216     
 -0.674149753273942      -0.611714533958233      -0.549269019064626     
 -0.486815515973620      -0.424355686123506      -0.361890745296453     
 -0.299421567470657      -0.236948670791206      -0.174471918401010     
 -0.111989282814928      -4.949229953293952E-002  1.305026592553680E-002
  -1.23512665131903       -1.17262665131903       -1.11021053333192     
  -1.04805340137095      -0.985781675898175      -0.923437775411043     
 -0.861050813066539      -0.798636690110877      -0.736204435804055     
 -0.673759481018874      -0.611305269450497      -0.548844086058297     
 -0.486377506099201      -0.423906649982560      -0.361432330927735     
 -0.298955131370016      -0.236475398373915      -0.173993049064017     
 -0.111506745371157      -4.901077259184847E-002  1.351667219946438E-002
  -1.23512665131903       -1.17262665131903       -1.11019959000005     
  -1.04789619071994      -0.985523342365067      -0.923110926405047     
 -0.860675853746359      -0.798226658901927      -0.735767988721117     
 -0.673302583332289      -0.610832170767330      -0.548357902070464     
 -0.485880578689841      -0.423400778558082      -0.360918928015028     
 -0.298435338177002      -0.235950200008326      -0.173463479401044     
 -0.110974472980163      -4.848009649201991E-002  1.403179519197113E-002
  -1.23512665131903       -1.17262665131903       -1.11012903198267     
  -1.04769722277805      -0.985249904455041      -0.922791388939517     
 -0.860325470057393      -0.797854363189499      -0.735379412140786     
 -0.672901486527941      -0.610421182337093      -0.547938927563074     
 -0.485455041237541      -0.422969768144446      -0.360483299602299     
 -0.297995784044946      -0.235507323693219      -0.173017934248288     
 -0.110527375177136      -4.803448625083501E-002  1.446547760769313E-002
  -1.23512665131903       -1.17262665131903       -1.11007560072567     
  -1.04760317013187      -0.985133589598960      -0.922661329033407     
 -0.860186131446092      -0.797708360761314      -0.735228406057384     
 -0.672746596048308      -0.610263197411900      -0.547778426129084     
 -0.485292458578066      -0.422805440234141      -0.360317491911534     
 -0.297828713260512      -0.235339181090763      -0.172848932131457     
 -0.110357889390526      -4.786556873745754E-002  1.463012674552402E-002
  0.000000000000000E+000  0.000000000000000E+000  1.496522374850260E-004
  2.682538528629111E-004  3.561782738159524E-004  4.247712533050993E-004
  4.804028598029905E-004  5.267959554453637E-004  5.662907474330309E-004
  6.004504393315032E-004  6.303702862553644E-004  6.568471511123982E-004
  6.804785112524429E-004  7.017231340120905E-004  7.209390313597148E-004
  7.384049652167869E-004  7.543217127366270E-004  7.687645284282734E-004
  7.814726158178084E-004  7.910371918393645E-004  7.917473436760102E-004
  2.916450360778500E-002  2.916450360778500E-002  2.931838245506547E-002
  2.944786221178172E-002  2.954269811073443E-002  2.961579764219286E-002
  2.967454164517781E-002  2.972318790389345E-002  2.976437463681255E-002
  2.979984196801404E-002  2.983079611025066E-002  2.985810674118588E-002
  2.988242093049682E-002  2.990423223174271E-002  2.992392349011145E-002
  2.994179083110251E-002  2.995804468430239E-002  2.997275555370844E-002