 Title = "Wing and Wake"
 VARIABLES = "X" "Y" "Z" "GAM"
 Zone I=   26 J=   25 K=1  T="Blade"
 DATAPACKING=BLOCK
 VARLOCATION=([4]=CELLCENTERED)
  0.100128602182924       0.100568578755475       0.101008555328025     
  0.101448531900575       0.101888508473125       0.102328485045675     
  0.102768461618225       0.103208438190775       0.103648414763325     
  0.104088391335875       0.104528367908425       0.104968344480975     
  0.105408321053525       0.105848297626075       0.106288274198625     
  0.106728250771175       0.107168227343725       0.107608203916276     
  0.108048180488825       0.108488157061375       0.108928133633926     
  0.109368110206476       0.109808086779025       0.110248063351576     
  0.110688039924126       0.111128016496676       0.101720402045905     
  0.102160378618455       0.102600355191005       0.103040331763555     
  0.103480308336105       0.103920284908655       0.104360261481205     
  0.104800238053755       0.105240214626305       0.105680191198856     
  0.106120167771405       0.106560144343956       0.107000120916506     
  0.107440097489056       0.107880074061606       0.108320050634156     
  0.108760027206706       0.109200003779256       0.109639980351806     
  0.110079956924356       0.110519933496906       0.110959910069456     
  0.111399886642006       0.111839863214556       0.112279839787107     
  0.112719816359656       0.106468565497861       0.106908542070410     
  0.107348518642961       0.107788495215511       0.108228471788061     
  0.108668448360611       0.109108424933161       0.109548401505711     
  0.109988378078261       0.110428354650811       0.110868331223361     
  0.111308307795911       0.111748284368461       0.112188260941011     
  0.112628237513561       0.113068214086111       0.113508190658661     
  0.113948167231212       0.114388143803762       0.114828120376312     
  0.115268096948862       0.115708073521412       0.116148050093962     
  0.116588026666512       0.117028003239062       0.117467979811612     
  0.114291850145689       0.114731826718239       0.115171803290789     
  0.115611779863339       0.116051756435889       0.116491733008439     
  0.116931709580989       0.117371686153539       0.117811662726089     
  0.118251639298640       0.118691615871189       0.119131592443739     
  0.119571569016289       0.120011545588840       0.120451522161390     
  0.120891498733940       0.121331475306490       0.121771451879040     
  0.122211428451590       0.122651405024140       0.123091381596690     
  0.123531358169240       0.123971334741790       0.124411311314340     
  0.124851287886890       0.125291264459440       0.125056397420041     
  0.125496373992591       0.125936350565141       0.126376327137691     
  0.126816303710241       0.127256280282791       0.127696256855341     
  0.128136233427891       0.128576210000441       0.129016186572991     
  0.129456163145541       0.129896139718092       0.130336116290641     
  0.130776092863192       0.131216069435742       0.131656046008291     
  0.132096022580842       0.132535999153392       0.132975975725942     
  0.133415952298492       0.133855928871042       0.134295905443592     
  0.134735882016142       0.135175858588692       0.135615835161242     
  0.136055811733792       0.138578022932556       0.139017999505107     
  0.139457976077657       0.139897952650207       0.140337929222756     
  0.140777905795307       0.141217882367857       0.141657858940407     
  0.142097835512957       0.142537812085507       0.142977788658057     
  0.143417765230607       0.143857741803157       0.144297718375707     
  0.144737694948257       0.145177671520807       0.145617648093357     
  0.146057624665907       0.146497601238457       0.146937577811008     
  0.147377554383557       0.147817530956107       0.148257507528658     
  0.148697484101208       0.149137460673758       0.149577437246308     
  0.154625367921813       0.155065344494363       0.155505321066913     
  0.155945297639464       0.156385274212013       0.156825250784564     
  0.157265227357114       0.157705203929663       0.158145180502214     
  0.158585157074764       0.159025133647314       0.159465110219864     
  0.159905086792414       0.160345063364964       0.160785039937514     
  0.161225016510064       0.161664993082614       0.162104969655164     
  0.162544946227714       0.162984922800264       0.163424899372814     
  0.163864875945364       0.164304852517914       0.164744829090465     
  0.165184805663015       0.165624782235565       0.172923857865881     
  0.173363834438431       0.173803811010981       0.174243787583531     
  0.174683764156081       0.175123740728631       0.175563717301182     
  0.176003693873731       0.176443670446282       0.176883647018832     
  0.177323623591381       0.177763600163932       0.178203576736481     
  0.178643553309032       0.179083529881582       0.179523506454132     
  0.179963483026682       0.180403459599232       0.180843436171782     
  0.181283412744332       0.181723389316882       0.182163365889432     
  0.182603342461982       0.183043319034532       0.183483295607082     
  0.183923272179632       0.193160400528517       0.193600377101066     
  0.194040353673616       0.194480330246166       0.194920306818716     
  0.195360283391267       0.195800259963817       0.196240236536367     
  0.196680213108916       0.197120189681467       0.197560166254017     
  0.198000142826567       0.198440119399117       0.198880095971667     
  0.199320072544217       0.199760049116767       0.200200025689317     
  0.200640002261868       0.201079978834417       0.201519955406968     
  0.201959931979517       0.202399908552068       0.202839885124618     
  0.203279861697168       0.203719838269718       0.204159814842267     
  0.214988743054132       0.215428719626682       0.215868696199232     
  0.216308672771783       0.216748649344332       0.217188625916882     
  0.217628602489433       0.218068579061982       0.218508555634533     
  0.218948532207083       0.219388508779633       0.219828485352183     
  0.220268461924733       0.220708438497283       0.221148415069833     
  0.221588391642383       0.222028368214933       0.222468344787483     
  0.222908321360033       0.223348297932583       0.223788274505133     
  0.224228251077683       0.224668227650234       0.225108204222783     
  0.225548180795333       0.225988157367883       0.238035396450156     
  0.238475373022706       0.238915349595255       0.239355326167805     
  0.239795302740356       0.240235279312906       0.240675255885456     
  0.241115232458006       0.241555209030556       0.241995185603106     
  0.242435162175656       0.242875138748206       0.243315115320756     
  0.243755091893306       0.244195068465856       0.244635045038407     
  0.245075021610956       0.245514998183506       0.245954974756056     
  0.246394951328607       0.246834927901156       0.247274904473707     
  0.247714881046257       0.248154857618807       0.248594834191357     
  0.249034810763907       0.261906026087241       0.262346002659791     
  0.262785979232341       0.263225955804891       0.263665932377441     
  0.264105908949991       0.264545885522541       0.264985862095092     
  0.265425838667641       0.265865815240191       0.266305791812741     
  0.266745768385292       0.267185744957841       0.267625721530392     
  0.268065698102941       0.268505674675491       0.268945651248042     
  0.269385627820592       0.269825604393142       0.270265580965692     
  0.270705557538242       0.271145534110792       0.271585510683342     
  0.272025487255891       0.272465463828442       0.272905440400992     
  0.286192198874108       0.286632175446658       0.287072152019209     
  0.287512128591758       0.287952105164308       0.288392081736859     
  0.288832058309409       0.289272034881959       0.289712011454508     
  0.290151988027059       0.290591964599609       0.291031941172159     
  0.291471917744708       0.291911894317260       0.292351870889809     
  0.292791847462359       0.293231824034910       0.293671800607459     
  0.294111777180010       0.294551753752559       0.294991730325109     
  0.295431706897660       0.295871683470210       0.296311660042760     
  0.296751636615309       0.297191613187859       0.310478371660976     
  0.310918348233526       0.311358324806076       0.311798301378626     
  0.312238277951176       0.312678254523726       0.313118231096276     
  0.313558207668827       0.313998184241377       0.314438160813927     
  0.314878137386476       0.315318113959026       0.315758090531576     
  0.316198067104127       0.316638043676676       0.317078020249227     
  0.317517996821778       0.317957973394328       0.318397949966877     
  0.318837926539427       0.319277903111978       0.319717879684527     
  0.320157856257077       0.320597832829627       0.321037809402177     
  0.321477785974727       0.334349001298061       0.334788977870612     
  0.335228954443161       0.335668931015711       0.336108907588261     
  0.336548884160811       0.336988860733361       0.337428837305912     
  0.337868813878462       0.338308790451012       0.338748767023562     
  0.339188743596111       0.339628720168661       0.340068696741212     
  0.340508673313762       0.340948649886312       0.341388626458862     
  0.341828603031412       0.342268579603962       0.342708556176512     
  0.343148532749062       0.343588509321612       0.344028485894162     
  0.344468462466713       0.344908439039262       0.345348415611812     
  0.357395654694085       0.357835631266634       0.358275607839185     
  0.358715584411735       0.359155560984285       0.359595537556835     
  0.360035514129385       0.360475490701935       0.360915467274485     
  0.361355443847035       0.361795420419585       0.362235396992135     
  0.362675373564685       0.363115350137235       0.363555326709785     
  0.363995303282335       0.364435279854885       0.364875256427435     
  0.365315232999985       0.365755209572535       0.366195186145086     
  0.366635162717635       0.367075139290186       0.367515115862736     
  0.367955092435286       0.368395069007835       0.379223997219700     
  0.379663973792250       0.380103950364800       0.380543926937350     
  0.380983903509900       0.381423880082450       0.381863856655000     
  0.382303833227550       0.382743809800102       0.383183786372651     
  0.383623762945200       0.384063739517751       0.384503716090301     
  0.384943692662850       0.385383669235401       0.385823645807951     
  0.386263622380501       0.386703598953051       0.387143575525602     
  0.387583552098150       0.388023528670701       0.388463505243252     
  0.388903481815801       0.389343458388351       0.389783434960902     
  0.390223411533451       0.399460539882335       0.399900516454887     
  0.400340493027436       0.400780469599986       0.401220446172536     
  0.401660422745086       0.402100399317636       0.402540375890186     
  0.402980352462736       0.403420329035286       0.403860305607836     
  0.404300282180386       0.404740258752937       0.405180235325487     
  0.405620211898037       0.406060188470586       0.406500165043136     
  0.406940141615686       0.407380118188237       0.407820094760787     
  0.408260071333336       0.408700047905887       0.409140024478437     
  0.409580001050987       0.410019977623537       0.410459954196087     
  0.417759029826403       0.418199006398953       0.418638982971504     
  0.419078959544054       0.419518936116604       0.419958912689154     
  0.420398889261703       0.420838865834253       0.421278842406804     
  0.421718818979353       0.422158795551904       0.422598772124453     
  0.423038748697004       0.423478725269554       0.423918701842104     
  0.424358678414654       0.424798654987204       0.425238631559754     
  0.425678608132305       0.426118584704855       0.426558561277404     
  0.426998537849955       0.427438514422504       0.427878490995054     
  0.428318467567605       0.428758444140154       0.433806374815661     
  0.434246351388211       0.434686327960760       0.435126304533311     
  0.435566281105861       0.436006257678410       0.436446234250960     
  0.436886210823510       0.437326187396061       0.437766163968611     
  0.438206140541160       0.438646117113711       0.439086093686261     
  0.439526070258811       0.439966046831361       0.440406023403911     
  0.440845999976461       0.441285976549011       0.441725953121561     
  0.442165929694111       0.442605906266661       0.443045882839211     
  0.443485859411761       0.443925835984312       0.444365812556862     
  0.444805789129411       0.447328000328176       0.447767976900725     
  0.448207953473275       0.448647930045826       0.449087906618376     
  0.449527883190926       0.449967859763475       0.450407836336026     
  0.450847812908577       0.451287789481126       0.451727766053677     
  0.452167742626226       0.452607719198776       0.453047695771326     
  0.453487672343876       0.453927648916426       0.454367625488977     
  0.454807602061527       0.455247578634077       0.455687555206627     
  0.456127531779178       0.456567508351727       0.457007484924277     
  0.457447461496827       0.457887438069377       0.458327414641927     
  0.458092547602528       0.458532524175078       0.458972500747628     
  0.459412477320179       0.459852453892729       0.460292430465278     
  0.460732407037828       0.461172383610379       0.461612360182928     
  0.462052336755479       0.462492313328029       0.462932289900578     
  0.463372266473128       0.463812243045679       0.464252219618229     
  0.464692196190778       0.465132172763328       0.465572149335878     
  0.466012125908429       0.466452102480978       0.466892079053530     
  0.467332055626079       0.467772032198629       0.468212008771179     
  0.468651985343729       0.469091961916279       0.465915832250356     
  0.466355808822907       0.466795785395456       0.467235761968006     
  0.467675738540556       0.468115715113106       0.468555691685657     
  0.468995668258207       0.469435644830756       0.469875621403307     
  0.470315597975857       0.470755574548407       0.471195551120957     
  0.471635527693507       0.472075504266057       0.472515480838606     
  0.472955457411157       0.473395433983707       0.473835410556258     
  0.474275387128807       0.474715363701357       0.475155340273907     
  0.475595316846457       0.476035293419007       0.476475269991558     
  0.476915246564107       0.470663995702312       0.471103972274861     
  0.471543948847412       0.471983925419962       0.472423901992512     
  0.472863878565062       0.473303855137612       0.473743831710162     
  0.474183808282712       0.474623784855262       0.475063761427812     
  0.475503738000362       0.475943714572912       0.476383691145463     
  0.476823667718013       0.477263644290562       0.477703620863113     
  0.478143597435663       0.478583574008212       0.479023550580762     
  0.479463527153313       0.479903503725863       0.480343480298413     
  0.480783456870963       0.481223433443513       0.481663410016062     
  0.472255795565292       0.472695772137842       0.473135748710394     
  0.473575725282943       0.474015701855492       0.474455678428043     
  0.474895655000593       0.475335631573142       0.475775608145693     
  0.476215584718243       0.476655561290793       0.477095537863343     
  0.477535514435893       0.477975491008443       0.478415467580993     
  0.478855444153542       0.479295420726092       0.479735397298643     
  0.480175373871193       0.480615350443743       0.481055327016293     
  0.481495303588843       0.481935280161394       0.482375256733944     
  0.482815233306493       0.483255209879044     
  7.105112965248116E-002  6.939268907685299E-002  6.773424850122499E-002
  6.607580792559699E-002  6.441736734996896E-002  6.275892677434064E-002
  6.110048619871265E-002  5.944204562308474E-002  5.778360504745659E-002
  5.612516447182828E-002  5.446672389620023E-002  5.280828332057218E-002
  5.114984274494402E-002  4.949140216931585E-002  4.783296159368782E-002
  4.617452101805977E-002  4.451608044243169E-002  4.285763986680347E-002
  4.119919929117544E-002  3.954075871554739E-002  3.788231813991935E-002
  3.622387756429118E-002  3.456543698866313E-002  3.290699641303493E-002
  3.124855583740695E-002  2.959011526177889E-002  7.147342675386185E-002
  6.981498617823383E-002  6.815654560260555E-002  6.649810502697748E-002
  6.483966445134952E-002  6.318122387572132E-002  6.152278330009323E-002
  5.986434272446508E-002  5.820590214883697E-002  5.654746157320908E-002
  5.488902099758081E-002  5.323058042195285E-002  5.157213984632479E-002
  4.991369927069655E-002  4.825525869506841E-002  4.659681811944030E-002
  4.493837754381234E-002  4.327993696818424E-002  4.162149639255606E-002
  3.996305581692802E-002  3.830461524129997E-002  3.664617466567179E-002
  3.498773409004376E-002  3.332929351441555E-002  3.167085293878756E-002
  3.001241236315941E-002  7.273309243751629E-002  7.107465186188811E-002
  6.941621128626019E-002  6.775777071063187E-002  6.609933013500392E-002
  6.444088955937569E-002  6.278244898374775E-002  6.112400840811973E-002
  5.946556783249149E-002  5.780712725686366E-002  5.614868668123537E-002
  5.449024610560727E-002  5.283180552997925E-002  5.117336495435088E-002
  4.951492437872294E-002  4.785648380309476E-002  4.619804322746680E-002
  4.453960265183862E-002  4.288116207621054E-002  4.122272150058248E-002
  3.956428092495438E-002  3.790584034932622E-002  3.624739977369816E-002
  3.458895919807003E-002  3.293051862244203E-002  3.127207804681383E-002
  7.480857347435191E-002  7.315013289872391E-002  7.149169232309573E-002
  6.983325174746784E-002  6.817481117183945E-002  6.651637059621142E-002
  6.485793002058332E-002  6.319948944495522E-002  6.154104886932700E-002
  5.988260829369896E-002  5.822416771807092E-002  5.656572714244276E-002
  5.490728656681479E-002  5.324884599118665E-002  5.159040541555873E-002
  4.993196483993054E-002  4.827352426430238E-002  4.661508368867451E-002
  4.495664311304626E-002  4.329820253741796E-002  4.163976196178999E-002
  3.998132138616190E-002  3.832288081053376E-002  3.666444023490568E-002
  3.500599965927764E-002  3.334755908364957E-002  7.766435780839662E-002
  7.600591723276848E-002  7.434747665714030E-002  7.268903608151216E-002
  7.103059550588406E-002  6.937215493025577E-002  6.771371435462761E-002
  6.605527377899965E-002  6.439683320337154E-002  6.273839262774344E-002
  6.107995205211560E-002  5.942151147648751E-002  5.776307090085919E-002
  5.610463032523117E-002  5.444618974960327E-002  5.278774917397497E-002
  5.112930859834691E-002  4.947086802271881E-002  4.781242744709065E-002
  4.615398687146258E-002  4.449554629583435E-002  4.283710572020639E-002
  4.117866514457824E-002  3.952022456895034E-002  3.786178399332205E-002
  3.620334341769410E-002  8.125158217792121E-002  7.959314160229308E-002
  7.793470102666503E-002  7.627626045103687E-002  7.461781987540871E-002
  7.295937929978064E-002  7.130093872415262E-002  6.964249814852452E-002
  6.798405757289638E-002  6.632561699726827E-002  6.466717642164020E-002
  6.300873584601230E-002  6.135029527038404E-002  5.969185469475598E-002
  5.803341411912775E-002  5.637497354349964E-002  5.471653296787159E-002
  5.305809239224358E-002  5.139965181661536E-002  4.974121124098738E-002
  4.808277066535938E-002  4.642433008973125E-002  4.476588951410321E-002
  4.310744893847495E-002  4.144900836284689E-002  3.979056778721887E-002
  8.550886817939719E-002  8.385042760376911E-002  8.219198702814118E-002
  8.053354645251307E-002  7.887510587688507E-002  7.721666530125705E-002
  7.555822472562873E-002  7.389978415000090E-002  7.224134357437266E-002
  7.058290299874433E-002  6.892446242311635E-002  6.726602184748839E-002
  6.560758127186030E-002  6.394914069623221E-002  6.229070012060404E-002
  6.063225954497595E-002  5.897381896934799E-002  5.731537839371977E-002
  5.565693781809140E-002  5.399849724246332E-002  5.234005666683531E-002
  5.068161609120742E-002  4.902317551557939E-002  4.736473493995121E-002
  4.570629436432302E-002  4.404785378869484E-002  9.036337246899703E-002
  8.870493189336864E-002  8.704649131774074E-002  8.538805074211241E-002
  8.372961016648436E-002  8.207116959085635E-002  8.041272901522833E-002
  7.875428843960010E-002  7.709584786397226E-002  7.543740728834417E-002
  7.377896671271601E-002  7.212052613708775E-002  7.046208556145982E-002
  6.880364498583152E-002  6.714520441020361E-002  6.548676383457558E-002
  6.382832325894748E-002  6.216988268331914E-002  6.051144210769099E-002
  5.885300153206330E-002  5.719456095643494E-002  5.553612038080676E-002
  5.387767980517866E-002  5.221923922955048E-002  5.056079865392255E-002
  4.890235807829435E-002  9.573203313240211E-002  9.407359255677387E-002
  9.241515198114536E-002  9.075671140551735E-002  8.909827082988928E-002
  8.743983025426121E-002  8.578138967863333E-002  8.412294910300501E-002
  8.246450852737722E-002  8.080606795174880E-002  7.914762737612085E-002
  7.748918680049262E-002  7.583074622486462E-002  7.417230564923648E-002
  7.251386507360826E-002  7.085542449798023E-002  6.919698392235206E-002
  6.753854334672416E-002  6.588010277109618E-002  6.422166219546807E-002
  6.256322161983986E-002  6.090478104421169E-002  5.924634046858381E-002
  5.758789989295521E-002  5.592945931732750E-002  5.427101874169917E-002
  0.101522990897187       9.986455032155922E-002  9.820610974593100E-002
  9.654766917030334E-002  9.488922859467475E-002  9.323078801904662E-002
  9.157234744341894E-002  8.991390686779063E-002  8.825546629216244E-002
  8.659702571653437E-002  8.493858514090634E-002  8.328014456527827E-002
  8.162170398965005E-002  7.996326341402177E-002  7.830482283839409E-002
  7.664638226276592E-002  7.498794168713779E-002  7.332950111150949E-002
  7.167106053588171E-002  7.001261996025358E-002  6.835417938462551E-002
  6.669573880899705E-002  6.503729823336935E-002  6.337885765774101E-002
  6.172041708211309E-002  6.006197650648513E-002  0.107637160870441     
  0.105978720294813       0.104320279719185       0.102661839143557     
  0.101003398567929       9.934495799230086E-002  9.768651741667275E-002
  9.602807684104483E-002  9.436963626541646E-002  9.271119568978821E-002
  9.105275511416043E-002  8.939431453853207E-002  8.773587396290390E-002
  8.607743338727623E-002  8.441899281164780E-002  8.276055223601995E-002
  8.110211166039183E-002  7.944367108476350E-002  7.778523050913545E-002
  7.612678993350751E-002  7.446834935787927E-002  7.280990878225127E-002
  7.115146820662316E-002  6.949302763099517E-002  6.783458705536728E-002
  6.617614647973881E-002  0.113969927908753       0.112311487333125     
  0.110653046757497       0.108994606181869       0.107336165606240     
  0.105677725030613       0.104019284454984       0.102360843879357     
  0.100702403303728       9.904396272809989E-002  9.738552215247191E-002
  9.572708157684393E-002  9.406864100121599E-002  9.241020042558779E-002
  9.075175984995977E-002  8.909331927433153E-002  8.743487869870331E-002
  8.577643812307571E-002  8.411799754744723E-002  8.245955697181942E-002
  8.080111639619121E-002  7.914267582056289E-002  7.748423524493486E-002
  7.582579466930649E-002  7.416735409367903E-002  7.250891351805080E-002
  0.120412936612322       0.118754496036694       0.117096055461066     
  0.115437614885438       0.113779174309810       0.112120733734182     
  0.110462293158554       0.108803852582925       0.107145412007297     
  0.105486971431669       0.103828530856042       0.102170090280413     
  0.100511649704785       9.885320912915736E-002  9.719476855352871E-002
  9.553632797790042E-002  9.387788740227289E-002  9.221944682664468E-002
  9.056100625101655E-002  8.890256567538846E-002  8.724412509976048E-002
  8.558568452413223E-002  8.392724394850408E-002  8.226880337287602E-002
  8.061036279724790E-002  7.895192222161988E-002  0.126855945315891     
  0.125197504740264       0.123539064164635       0.121880623589007     
  0.120222183013379       0.118563742437751       0.116905301862123     
  0.115246861286495       0.113588420710867       0.111929980135239     
  0.110271539559611       0.108613098983983       0.106954658408354     
  0.105296217832727       0.103637777257098       0.101979336681470     
  0.100320896105842       9.866245553021398E-002  9.700401495458592E-002
  9.534557437895762E-002  9.368713380332977E-002  9.202869322770117E-002
  9.037025265207324E-002  8.871181207644543E-002  8.705337150081700E-002
  8.539493092518935E-002  0.133188712354203       0.131530271778575     
  0.129871831202947       0.128213390627319       0.126554950051691     
  0.124896509476062       0.123238068900434       0.121579628324807     
  0.119921187749178       0.118262747173550       0.116604306597922     
  0.114945866022294       0.113287425446667       0.111628984871038     
  0.109970544295410       0.108312103719782       0.106653663144154     
  0.104995222568525       0.103336781992898       0.101678341417270     
  0.100019900841642       9.836146026601301E-002  9.670301969038479E-002
  9.504457911475760E-002  9.338613853912919E-002  9.172769796350078E-002
  0.139302882327457       0.137644441751829       0.135986001176201     
  0.134327560600573       0.132669120024945       0.131010679449317     
  0.129352238873689       0.127693798298061       0.126035357722432     
  0.124376917146804       0.122718476571177       0.121060035995548     
  0.119401595419920       0.117743154844292       0.116084714268663     
  0.114426273693036       0.112767833117407       0.111109392541780     
  0.109450951966152       0.107792511390523       0.106134070814895     
  0.104475630239267       0.102817189663639       0.101158749088011     
  9.950030851238310E-002  9.784186793675478E-002  0.145093840092242     
  0.143435399516615       0.141776958940986       0.140118518365358     
  0.138460077789731       0.136801637214102       0.135143196638474     
  0.133484756062846       0.131826315487218       0.130167874911590     
  0.128509434335962       0.126850993760334       0.125192553184706     
  0.123534112609077       0.121875672033450       0.120217231457821     
  0.118558790882193       0.116900350306565       0.115241909730937     
  0.113583469155309       0.111925028579681       0.110266588004053     
  0.108608147428425       0.106949706852797       0.105291266277168     
  0.103632825701541       0.150462500755648       0.148804060180020     
  0.147145619604391       0.145487179028764       0.143828738453135     
  0.142170297877508       0.140511857301879       0.138853416726252     
  0.137194976150622       0.135536535574995       0.133878094999367     
  0.132219654423738       0.130561213848111       0.128902773272483     
  0.127244332696854       0.125585892121226       0.123927451545598     
  0.122269010969970       0.120610570394342       0.118952129818714     
  0.117293689243086       0.115635248667457       0.113976808091830     
  0.112318367516202       0.110659926940574       0.109001486364945     
  0.155317005045247       0.153658564469620       0.152000123893991     
  0.150341683318363       0.148683242742735       0.147024802167107     
  0.145366361591479       0.143707921015850       0.142049480440223     
  0.140391039864594       0.138732599288967       0.137074158713338     
  0.135415718137710       0.133757277562082       0.132098836986453     
  0.130440396410826       0.128781955835198       0.127123515259570     
  0.125465074683941       0.123806634108314       0.122148193532686     
  0.120489752957057       0.118831312381429       0.117172871805801     
  0.115514431230173       0.113855990654545       0.159574291046723     
  0.157915850471095       0.156257409895467       0.154598969319839     
  0.152940528744211       0.151282088168583       0.149623647592954     
  0.147965207017327       0.146306766441699       0.144648325866070     
  0.142989885290442       0.141331444714814       0.139673004139187     
  0.138014563563558       0.136356122987930       0.134697682412302     
  0.133039241836674       0.131380801261045       0.129722360685418     
  0.128063920109790       0.126405479534162       0.124747038958533     
  0.123088598382906       0.121430157807277       0.119771717231649     
  0.118113276656021       0.163161515416248       0.161503074840620     
  0.159844634264992       0.158186193689364       0.156527753113736     
  0.154869312538107       0.153210871962480       0.151552431386852     
  0.149893990811224       0.148235550235596       0.146577109659968     
  0.144918669084339       0.143260228508711       0.141601787933083     
  0.139943347357455       0.138284906781827       0.136626466206199     
  0.134968025630571       0.133309585054943       0.131651144479315     
  0.129992703903686       0.128334263328059       0.126675822752430     
  0.125017382176802       0.123358941601174       0.121700501025545     
  0.166017299750292       0.164358859174665       0.162700418599037     
  0.161041978023408       0.159383537447781       0.157725096872152     
  0.156066656296525       0.154408215720896       0.152749775145268     
  0.151091334569641       0.149432893994012       0.147774453418384     
  0.146116012842755       0.144457572267127       0.142799131691499     
  0.141140691115872       0.139482250540243       0.137823809964615     
  0.136165369388987       0.134506928813358       0.132848488237731     
  0.131190047662103       0.129531607086475       0.127873166510846     
  0.126214725935218       0.124556285359590       0.168092780787128     
  0.166434340211500       0.164775899635872       0.163117459060244     