 Title = "Wing and Wake"
 VARIABLES = "X" "Y" "Z" "GAM"
 Zone I=   26 J=   25 K=1  T="Blade"
 DATAPACKING=BLOCK
 VARLOCATION=([4]=CELLCENTERED)
  0.122238480576972       0.121790435160864       0.121342389744756     
  0.120894344328648       0.120446298912540       0.119998253496432     
  0.119550208080324       0.119102162664216       0.118654117248108     
  0.118206071832000       0.117758026415892       0.117309980999784     
  0.116861935583676       0.116413890167568       0.115965844751460     
  0.115517799335352       0.115069753919244       0.114621708503137     
  0.114173663087028       0.113725617670920       0.113277572254812     
  0.112829526838704       0.112381481422596       0.111933436006488     
  0.111485390590380       0.111037345174273       0.123828205637361     
  0.123380160221254       0.122932114805146       0.122484069389038     
  0.122036023972930       0.121587978556822       0.121139933140714     
  0.120691887724606       0.120243842308498       0.119795796892390     
  0.119347751476282       0.118899706060174       0.118451660644066     
  0.118003615227958       0.117555569811850       0.117107524395742     
  0.116659478979634       0.116211433563526       0.115763388147418     
  0.115315342731310       0.114867297315202       0.114419251899094     
  0.113971206482986       0.113523161066878       0.113075115650770     
  0.112627070234662       0.128570180181992       0.128122134765883     
  0.127674089349776       0.127226043933667       0.126777998517560     
  0.126329953101452       0.125881907685344       0.125433862269236     
  0.124985816853128       0.124537771437020       0.124089726020911     
  0.123641680604804       0.123193635188696       0.122745589772587     
  0.122297544356480       0.121849498940371       0.121401453524264     
  0.120953408108156       0.120505362692048       0.120057317275940     
  0.119609271859832       0.119161226443724       0.118713181027616     
  0.118265135611508       0.117817090195400       0.117369044779292     
  0.136383267711680       0.135935222295572       0.135487176879464     
  0.135039131463356       0.134591086047248       0.134143040631140     
  0.133694995215032       0.133246949798924       0.132798904382816     
  0.132350858966708       0.131902813550600       0.131454768134492     
  0.131006722718384       0.130558677302276       0.130110631886168     
  0.129662586470060       0.129214541053952       0.128766495637844     
  0.128318450221736       0.127870404805628       0.127422359389520     
  0.126974313973412       0.126526268557304       0.126078223141196     
  0.125630177725088       0.125182132308980       0.147133784132596     
  0.146685738716488       0.146237693300380       0.145789647884272     
  0.145341602468164       0.144893557052056       0.144445511635948     
  0.143997466219840       0.143549420803732       0.143101375387624     
  0.142653329971516       0.142205284555409       0.141757239139300     
  0.141309193723192       0.140861148307085       0.140413102890976     
  0.139965057474868       0.139517012058760       0.139068966642652     
  0.138620921226544       0.138172875810436       0.137724830394328     
  0.137276784978220       0.136828739562112       0.136380694146004     
  0.135932648729896       0.160637785128172       0.160189739712064     
  0.159741694295957       0.159293648879848       0.158845603463740     
  0.158397558047632       0.157949512631524       0.157501467215416     
  0.157053421799309       0.156605376383200       0.156157330967092     
  0.155709285550984       0.155261240134876       0.154813194718768     
  0.154365149302660       0.153917103886552       0.153469058470445     
  0.153021013054337       0.152572967638228       0.152124922222121     
  0.151676876806013       0.151228831389905       0.150780785973797     
  0.150332740557689       0.149884695141581       0.149436649725473     
  0.176664213497358       0.176216168081250       0.175768122665142     
  0.175320077249034       0.174872031832926       0.174423986416818     
  0.173975941000710       0.173527895584602       0.173079850168494     
  0.172631804752386       0.172183759336278       0.171735713920170     
  0.171287668504062       0.170839623087954       0.170391577671846     
  0.169943532255738       0.169495486839631       0.169047441423522     
  0.168599396007414       0.168151350591306       0.167703305175198     
  0.167255259759090       0.166807214342982       0.166359168926874     
  0.165911123510766       0.165463078094658       0.194938852607391     
  0.194490807191283       0.194042761775175       0.193594716359067     
  0.193146670942959       0.192698625526851       0.192250580110743     
  0.191802534694635       0.191354489278527       0.190906443862419     
  0.190458398446311       0.190010353030203       0.189562307614095     
  0.189114262197987       0.188666216781879       0.188218171365771     
  0.187770125949663       0.187322080533555       0.186874035117447     
  0.186425989701339       0.185977944285231       0.185529898869123     
  0.185081853453015       0.184633808036907       0.184185762620799     
  0.183737717204691       0.215149018316411       0.214700972900303     
  0.214252927484194       0.213804882068087       0.213356836651978     
  0.212908791235871       0.212460745819763       0.212012700403655     
  0.211564654987547       0.211116609571439       0.210668564155331     
  0.210220518739223       0.209772473323115       0.209324427907007     
  0.208876382490899       0.208428337074791       0.207980291658683     
  0.207532246242575       0.207084200826467       0.206636155410359     
  0.206188109994251       0.205740064578143       0.205292019162035     
  0.204843973745927       0.204395928329819       0.203947882913711     
  0.236948909085820       0.236500863669712       0.236052818253604     
  0.235604772837497       0.235156727421388       0.234708682005280     
  0.234260636589173       0.233812591173064       0.233364545756956     
  0.232916500340849       0.232468454924740       0.232020409508633     
  0.231572364092524       0.231124318676416       0.230676273260309     
  0.230228227844200       0.229780182428093       0.229332137011984     
  0.228884091595876       0.228436046179768       0.227988000763660     
  0.227539955347552       0.227091909931445       0.226643864515336     
  0.226195819099228       0.225747773683120       0.259965522740483     
  0.259517477324375       0.259069431908267       0.258621386492158     
  0.258173341076051       0.257725295659943       0.257277250243835     
  0.256829204827727       0.256381159411619       0.255933113995511     
  0.255485068579403       0.255037023163295       0.254588977747187     
  0.254140932331079       0.253692886914971       0.253244841498864     
  0.252796796082755       0.252348750666647       0.251900705250539     
  0.251452659834431       0.251004614418323       0.250556569002215     
  0.250108523586107       0.249660478169999       0.249212432753892     
  0.248764387337783       0.283805038639357       0.283356993223249     
  0.282908947807141       0.282460902391033       0.282012856974925     
  0.281564811558817       0.281116766142709       0.280668720726602     
  0.280220675310493       0.279772629894385       0.279324584478277     
  0.278876539062169       0.278428493646062       0.277980448229953     
  0.277532402813845       0.277084357397737       0.276636311981629     
  0.276188266565521       0.275740221149413       0.275292175733305     
  0.274844130317197       0.274396084901089       0.273948039484981     
  0.273499994068873       0.273051948652765       0.272603903236657     
  0.308059556055850       0.307611510639742       0.307163465223634     
  0.306715419807526       0.306267374391417       0.305819328975310     
  0.305371283559202       0.304923238143094       0.304475192726985     
  0.304027147310878       0.303579101894770       0.303131056478662     
  0.302683011062553       0.302234965646446       0.301786920230338     
  0.301338874814230       0.300890829398122       0.300442783982013     
  0.299994738565906       0.299546693149797       0.299098647733690     
  0.298650602317582       0.298202556901473       0.297754511485366     
  0.297306466069257       0.296858420653149       0.332314073472342     
  0.331866028056234       0.331417982640126       0.330969937224018     
  0.330521891807910       0.330073846391802       0.329625800975693     
  0.329177755559586       0.328729710143478       0.328281664727370     
  0.327833619311262       0.327385573895153       0.326937528479046     
  0.326489483062938       0.326041437646830       0.325593392230722     
  0.325145346814615       0.324697301398507       0.324249255982399     
  0.323801210566290       0.323353165150183       0.322905119734074     
  0.322457074317966       0.322009028901859       0.321560983485750     
  0.321112938069643       0.356153589371216       0.355705543955109     
  0.355257498539000       0.354809453122892       0.354361407706784     
  0.353913362290675       0.353465316874568       0.353017271458461     
  0.352569226042353       0.352121180626244       0.351673135210136     
  0.351225089794027       0.350777044377921       0.350328998961812     
  0.349880953545704       0.349432908129596       0.348984862713488     
  0.348536817297380       0.348088771881272       0.347640726465164     
  0.347192681049056       0.346744635632948       0.346296590216840     
  0.345848544800734       0.345400499384624       0.344952453968516     
  0.379170203025879       0.378722157609771       0.378274112193663     
  0.377826066777555       0.377378021361447       0.376929975945339     
  0.376481930529231       0.376033885113123       0.375585839697015     
  0.375137794280907       0.374689748864800       0.374241703448691     
  0.373793658032583       0.373345612616475       0.372897567200366     
  0.372449521784259       0.372001476368151       0.371553430952043     
  0.371105385535935       0.370657340119827       0.370209294703719     
  0.369761249287611       0.369313203871503       0.368865158455395     
  0.368417113039287       0.367969067623179       0.400970093795288     
  0.400522048379180       0.400074002963072       0.399625957546964     
  0.399177912130856       0.398729866714749       0.398281821298640     
  0.397833775882532       0.397385730466425       0.396937685050316     
  0.396489639634208       0.396041594218101       0.395593548801992     
  0.395145503385883       0.394697457969777       0.394249412553668     
  0.393801367137560       0.393353321721452       0.392905276305344     
  0.392457230889236       0.392009185473129       0.391561140057021     
  0.391113094640912       0.390665049224804       0.390217003808696     
  0.389768958392588       0.421180259504308       0.420732214088201     
  0.420284168672092       0.419836123255985       0.419388077839877     
  0.418940032423769       0.418491987007660       0.418043941591553     
  0.417595896175444       0.417147850759336       0.416699805343229     
  0.416251759927120       0.415803714511013       0.415355669094905     
  0.414907623678797       0.414459578262688       0.414011532846580     
  0.413563487430472       0.413115442014365       0.412667396598257     
  0.412219351182148       0.411771305766040       0.411323260349933     
  0.410875214933824       0.410427169517717       0.409979124101609     
  0.439454898614341       0.439006853198233       0.438558807782125     
  0.438110762366017       0.437662716949910       0.437214671533801     
  0.436766626117693       0.436318580701585       0.435870535285478     
  0.435422489869369       0.434974444453262       0.434526399037153     
  0.434078353621045       0.433630308204937       0.433182262788829     
  0.432734217372721       0.432286171956614       0.431838126540505     
  0.431390081124398       0.430942035708290       0.430493990292181     
  0.430045944876074       0.429597899459965       0.429149854043857     
  0.428701808627750       0.428253763211641       0.455481326983528     
  0.455033281567419       0.454585236151311       0.454137190735203     
  0.453689145319095       0.453241099902986       0.452793054486878     
  0.452345009070770       0.451896963654664       0.451448918238555     
  0.451000872822446       0.450552827406339       0.450104781990231     
  0.449656736574123       0.449208691158014       0.448760645741906     
  0.448312600325799       0.447864554909691       0.447416509493583     
  0.446968464077475       0.446520418661367       0.446072373245259     
  0.445624327829151       0.445176282413043       0.444728236996935     
  0.444280191580827       0.468985327979103       0.468537282562994     
  0.468089237146887       0.467641191730780       0.467193146314671     
  0.466745100898562       0.466297055482454       0.465849010066347     
  0.465400964650240       0.464952919234131       0.464504873818024     
  0.464056828401915       0.463608782985807       0.463160737569699     
  0.462712692153591       0.462264646737483       0.461816601321375     
  0.461368555905267       0.460920510489160       0.460472465073052     
  0.460024419656944       0.459576374240836       0.459128328824727     
  0.458680283408619       0.458232237992511       0.457784192576403     
  0.479735844400019       0.479287798983912       0.478839753567803     
  0.478391708151696       0.477943662735588       0.477495617319479     
  0.477047571903370       0.476599526487264       0.476151481071156     
  0.475703435655049       0.475255390238940       0.474807344822831     
  0.474359299406723       0.473911253990616       0.473463208574508     
  0.473015163158399       0.472567117742291       0.472119072326183     
  0.471671026910076       0.471222981493967       0.470774936077860     
  0.470326890661751       0.469878845245643       0.469430799829535     
  0.468982754413427       0.468534708997319       0.487548931929708     
  0.487100886513600       0.486652841097492       0.486204795681384     
  0.485756750265276       0.485308704849168       0.484860659433060     
  0.484412614016953       0.483964568600843       0.483516523184736     
  0.483068477768629       0.482620432352520       0.482172386936412     
  0.481724341520304       0.481276296104196       0.480828250688087     
  0.480380205271980       0.479932159855872       0.479484114439765     
  0.479036069023656       0.478588023607547       0.478139978191440     
  0.477691932775332       0.477243887359223       0.476795841943116     
  0.476347796527007       0.492290906474338       0.491842861058229     
  0.491394815642122       0.490946770226013       0.490498724809905     
  0.490050679393798       0.489602633977690       0.489154588561581     
  0.488706543145474       0.488258497729366       0.487810452313258     
  0.487362406897149       0.486914361481042       0.486466316064934     
  0.486018270648826       0.485570225232718       0.485122179816610     
  0.484674134400501       0.484226088984393       0.483778043568285     
  0.483329998152177       0.482881952736070       0.482433907319961     
  0.481985861903854       0.481537816487746       0.481089771071637     
  0.493880631534726       0.493432586118619       0.492984540702512     
  0.492536495286403       0.492088449870294       0.491640404454187     
  0.491192359038080       0.490744313621971       0.490296268205863     
  0.489848222789755       0.489400177373647       0.488952131957539     
  0.488504086541431       0.488056041125323       0.487607995709215     
  0.487159950293107       0.486711904876999       0.486263859460891     
  0.485815814044783       0.485367768628674       0.484919723212567     
  0.484471677796459       0.484023632380351       0.483575586964243     
  0.483127541548135       0.482679496132027     
  1.147840869778050E-002  9.822129786368710E-003  8.165850874957036E-003
  6.509571963545389E-003  4.853293052133728E-003  3.197014140721888E-003
  1.540735229310274E-003 -1.155436821012888E-004 -1.771822593513016E-003
 -3.428101504924967E-003 -5.084380416336570E-003 -6.740659327748227E-003
 -8.396938239160129E-003 -1.005321715057184E-002 -1.170949606198357E-002
 -1.336577497339524E-002 -1.502205388480684E-002 -1.667833279621880E-002
 -1.833461170763036E-002 -1.999089061904206E-002 -2.164716953045366E-002
 -2.330344844186551E-002 -2.495972735327706E-002 -2.661600626468888E-002
 -2.827228517610050E-002 -2.992856408751221E-002  1.104836698121211E-002
  9.392088069800505E-003  7.735809158388519E-003  6.079530246976897E-003
  4.423251335565211E-003  2.766972424153625E-003  1.110693512741796E-003
 -5.455853986699256E-004 -2.201864310081710E-003 -3.858143221493267E-003
 -5.514422132905017E-003 -7.170701044316703E-003 -8.826979955728448E-003
 -1.048325886714017E-002 -1.213953777855195E-002 -1.379581668996373E-002
 -1.545209560137526E-002 -1.710837451278695E-002 -1.876465342419867E-002
 -2.042093233561039E-002 -2.207721124702209E-002 -2.373349015843388E-002
 -2.538976906984556E-002 -2.704604798125727E-002 -2.870232689266911E-002
 -3.035860580408062E-002  9.765599964507590E-003  8.109321053095940E-003
  6.453042141684221E-003  4.796763230272298E-003  3.140484318860694E-003
  1.484205407448879E-003 -1.720735039626477E-004 -1.828352415374343E-003
 -3.484631326786189E-003 -5.140910238197751E-003 -6.797189149609336E-003
 -8.453468061021232E-003 -1.010974697243287E-002 -1.176602588384482E-002
 -1.342230479525635E-002 -1.507858370666802E-002 -1.673486261807984E-002
 -1.839114152949156E-002 -2.004742044090323E-002 -2.170369935231503E-002
 -2.335997826372664E-002 -2.501625717513847E-002 -2.667253608655010E-002
 -2.832881499796176E-002 -2.998509390937339E-002 -3.164137282078516E-002
  7.652056146972887E-003  5.995777235561078E-003  4.339498324149410E-003
  2.683219412737873E-003  1.026940501325835E-003 -6.293384100856716E-004
 -2.285617321497247E-003 -3.941896232909141E-003 -5.598175144320859E-003
 -7.254454055732772E-003 -8.910732967144340E-003 -1.056701187855605E-002
 -1.222329078996770E-002 -1.387956970137950E-002 -1.553584861279118E-002
 -1.719212752420282E-002 -1.884840643561464E-002 -2.050468534702602E-002
 -2.216096425843808E-002 -2.381724316984988E-002 -2.547352208126136E-002
 -2.712980099267306E-002 -2.878607990408486E-002 -3.044235881549648E-002
 -3.209863772690836E-002 -3.375491663831996E-002  4.743898849311088E-003
  3.087619937899506E-003  1.431341026487622E-003 -2.249378849239716E-004
 -1.881216796335774E-003 -3.537495707747511E-003 -5.193774619159252E-003
 -6.850053530570792E-003 -8.506332441982596E-003 -1.016261135339434E-002
 -1.181889026480589E-002 -1.347516917621782E-002 -1.513144808762929E-002
 -1.678772699904121E-002 -1.844400591045290E-002 -2.010028482186446E-002
 -2.175656373327612E-002 -2.341284264468804E-002 -2.506912155609979E-002
 -2.672540046751144E-002 -2.838167937892338E-002 -3.003795829033476E-002
 -3.169423720174655E-002 -3.335051611315814E-002 -3.500679502457000E-002
 -3.666307393598167E-002  1.090887449178697E-003 -5.653914622330905E-004
 -2.221670373644735E-003 -3.877949285056520E-003 -5.534228196468222E-003
 -7.190507107879897E-003 -8.846786019291460E-003 -1.050306493070333E-002
 -1.215934384211496E-002 -1.381562275352657E-002 -1.547190166493832E-002
 -1.712818057634985E-002 -1.878445948776196E-002 -2.044073839917337E-002
 -2.209701731058525E-002 -2.375329622199694E-002 -2.540957513340872E-002
 -2.706585404482032E-002 -2.872213295623198E-002 -3.037841186764386E-002
 -3.203469077905536E-002 -3.369096969046709E-002 -3.534724860187880E-002
 -3.700352751329062E-002 -3.865980642470229E-002 -4.031608533611391E-002
 -3.244474015561838E-003 -4.900752926973596E-003 -6.557031838385099E-003
 -8.213310749796931E-003 -9.869589661208333E-003 -1.152586857262022E-002
 -1.318214748403211E-002 -1.483842639544322E-002 -1.649470530685541E-002
 -1.815098421826724E-002 -1.980726312967892E-002 -2.146354204109064E-002
 -2.311982095250227E-002 -2.477609986391393E-002 -2.643237877532571E-002
 -2.808865768673746E-002 -2.974493659814913E-002 -3.140121550956094E-002
 -3.305749442097278E-002 -3.471377333238413E-002 -3.637005224379608E-002
 -3.802633115520760E-002 -3.968261006661910E-002 -4.133888897803120E-002
 -4.299516788944287E-002 -4.465144680085460E-002 -8.188006308259471E-003
 -9.844285219671338E-003 -1.150056413108284E-002 -1.315684304249482E-002
 -1.481312195390642E-002 -1.646940086531815E-002 -1.812567977672981E-002
 -1.978195868814146E-002 -2.143823759955304E-002 -2.309451651096480E-002
 -2.475079542237645E-002 -2.640707433378854E-002 -2.806335324519990E-002
 -2.971963215661189E-002 -3.137591106802350E-002 -3.303218997943507E-002
 -3.468846889084701E-002 -3.634474780225858E-002 -3.800102671367044E-002
 -3.965730562508199E-002 -4.131358453649366E-002 -4.296986344790539E-002
 -4.462614235931724E-002 -4.628242127072882E-002 -4.793870018214060E-002
 -4.959497909355234E-002 -1.365512422078023E-002 -1.531140313219183E-002
 -1.696768204360375E-002 -1.862396095501561E-002 -2.028023986642715E-002
 -2.193651877783899E-002 -2.359279768925061E-002 -2.524907660066211E-002
 -2.690535551207355E-002 -2.856163442348563E-002 -3.021791333489739E-002
 -3.187419224630930E-002 -3.353047115772075E-002 -3.518675006913260E-002
 -3.684302898054424E-002 -3.849930789195598E-002 -4.015558680336753E-002
 -4.181186571477965E-002 -4.346814462619106E-002 -4.512442353760283E-002
 -4.678070244901452E-002 -4.843698136042634E-002 -5.009326027183801E-002
 -5.174953918325000E-002 -5.340581809466161E-002 -5.506209700607306E-002
 -1.955228384986938E-002 -2.120856276128110E-002 -2.286484167269306E-002
 -2.452112058410473E-002 -2.617739949551625E-002 -2.783367840692805E-002
 -2.948995731833966E-002 -3.114623622975121E-002 -3.280251514116308E-002
 -3.445879405257514E-002 -3.611507296398660E-002 -3.777135187539837E-002
 -3.942763078681014E-002 -4.108390969822189E-002 -4.274018860963341E-002
 -4.439646752104504E-002 -4.605274643245693E-002 -4.770902534386853E-002
 -4.936530425528021E-002 -5.102158316669187E-002 -5.267786207810370E-002
 -5.433414098951569E-002 -5.599041990092733E-002 -5.764669881233862E-002
 -5.930297772375050E-002 -6.095925663516196E-002 -2.577858315927161E-002
 -2.743486207068377E-002 -2.909114098209531E-002 -3.074741989350704E-002
 -3.240369880491878E-002 -3.405997771633024E-002 -3.571625662774192E-002
 -3.737253553915362E-002 -3.902881445056581E-002 -4.068509336197702E-002
 -4.234137227338867E-002 -4.399765118480068E-002 -4.565393009621239E-002
 -4.731020900762373E-002 -4.896648791903596E-002 -5.062276683044734E-002
 -5.227904574185892E-002 -5.393532465327065E-002 -5.559160356468250E-002
 -5.724788247609444E-002 -5.890416138750587E-002 -6.056044029891776E-002
 -6.221671921032949E-002 -6.387299812174106E-002 -6.552927703315299E-002
 -6.718555594456456E-002 -3.222748844154730E-002 -3.388376735295884E-002
 -3.554004626437023E-002 -3.719632517578182E-002 -3.885260408719411E-002
 -4.050888299860525E-002 -4.216516191001723E-002 -4.382144082142930E-002
 -4.547771973284041E-002 -4.713399864425259E-002 -4.879027755566429E-002
 -5.044655646707615E-002 -5.210283537848766E-002 -5.375911428989939E-002
 -5.541539320131042E-002 -5.707167211272265E-002 -5.872795102413464E-002
 -6.038422993554599E-002 -6.204050884695759E-002 -6.369678775836937E-002
 -6.535306666978112E-002 -6.700934558119312E-002 -6.866562449260467E-002
 -7.032190340401642E-002 -7.197818231542782E-002 -7.363446122683948E-002
 -3.878865713934107E-002 -4.044493605075249E-002 -4.210121496216487E-002
 -4.375749387357628E-002 -4.541377278498783E-002 -4.707005169639933E-002
 -4.872633060781100E-002 -5.038260951922368E-002 -5.203888843063460E-002
 -5.369516734204682E-002 -5.535144625345821E-002 -5.700772516486993E-002
 -5.866400407628111E-002 -6.032028298769349E-002 -6.197656189910546E-002
 -6.363284081051751E-002 -6.528911972192877E-002 -6.694539863334016E-002
 -6.860167754475224E-002 -7.025795645616338E-002 -7.191423536757507E-002
 -7.357051427898713E-002 -7.522679319039884E-002 -7.688307210181050E-002
 -7.853935101322175E-002 -8.019562992463375E-002 -4.534982583713553E-002
 -4.700610474854654E-002 -4.866238365995873E-002 -5.031866257137015E-002
 -5.197494148278196E-002 -5.363122039419380E-002 -5.528749930560534E-002
 -5.694377821701725E-002 -5.860005712842907E-002 -6.025633603984055E-002
 -6.191261495125207E-002 -6.356889386266365E-002 -6.522517277407573E-002
 -6.688145168548741E-002 -6.853773059689909E-002 -7.019400950831096E-002
 -7.185028841972341E-002 -7.350656733113474E-002 -7.516284624254613E-002
 -7.681912515395799E-002 -7.847540406536976E-002 -8.013168297678147E-002
 -8.178796188819336E-002 -8.344424079960470E-002 -8.510051971101638E-002
 -8.675679862242799E-002 -5.179873111941057E-002 -5.345501003082262E-002
 -5.511128894223396E-002 -5.676756785364541E-002 -5.842384676505744E-002
 -6.008012567646931E-002 -6.173640458788098E-002 -6.339268349929229E-002
 -6.504896241070450E-002 -6.670524132211622E-002 -6.836152023352797E-002
 -7.001779914493952E-002 -7.167407805635075E-002 -7.333035696776280E-002
 -7.498663587917428E-002 -7.664291479058621E-002 -7.829919370199785E-002
 -7.995547261340991E-002 -8.161175152482125E-002 -8.326803043623249E-002
 -8.492430934764478E-002 -8.658058825905661E-002 -8.823686717046843E-002
 -8.989314608188009E-002 -9.154942499329127E-002 -9.320570390470299E-002
 -5.802503042881284E-002 -5.968130934022404E-002 -6.133758825163638E-002
 -6.299386716304818E-002 -6.465014607445978E-002 -6.630642498587125E-002
 -6.796270389728318E-002 -6.961898280869459E-002 -7.127526172010645E-002
 -7.293154063151827E-002 -7.458781954293003E-002 -7.624409845434151E-002
 -7.790037736575303E-002 -7.955665627716502E-002 -8.121293518857717E-002
 -8.286921409998815E-002 -8.452549301140072E-002 -8.618177192281175E-002
 -8.783805083422376E-002 -8.949432974563561E-002 -9.115060865704701E-002
 -9.280688756845842E-002 -9.446316647987056E-002 -9.611944539128241E-002
 -9.777572430269370E-002 -9.943200321410559E-002 -6.392219005790221E-002
 -6.557846896931345E-002 -6.723474788072539E-002 -6.889102679213682E-002
 -7.054730570354847E-002 -7.220358461496082E-002 -7.385986352637233E-002
 -7.551614243778355E-002 -7.717242134919639E-002 -7.882870026060737E-002
 -8.048497917201858E-002 -8.214125808343099E-002 -8.379753699484262E-002
 -8.545381590625425E-002 -8.711009481766557E-002 -8.876637372907797E-002
 -9.042265264048956E-002 -9.207893155190119E-002 -9.373521046331316E-002
 -9.539148937472409E-002 -9.704776828613589E-002 -9.870404719754797E-002
 -0.100360326108959      -0.102016605020371      -0.103672883931784     
 -0.105329162843194      -6.938930797042256E-002 -7.104558688183514E-002
 -7.270186579324664E-002 -7.435814470465736E-002 -7.601442361606957E-002
 -7.767070252748112E-002 -7.932698143889315E-002 -8.098326035030441E-002
 -8.263953926171701E-002 -8.429581817312795E-002 -8.595209708453995E-002
 -8.760837599595167E-002 -8.926465490736343E-002 -9.092093381877496E-002
 -9.257721273018715E-002 -9.423349164159815E-002 -9.588977055300997E-002
 -9.754604946442196E-002 -9.920232837583387E-002 -0.100858607287246     
 -0.102514886198657      -0.104171165110069      -0.105827444021480     
 -0.107483722932892      -0.109140001844303      -0.110796280755716     
 -7.433284026312070E-002 -7.598911917453141E-002 -7.764539808594428E-002
 -7.930167699735514E-002 -8.095795590876771E-002 -8.261423482017898E-002
 -8.427051373159038E-002 -8.592679264300238E-002 -8.758307155441412E-002
 -8.923935046582573E-002 -9.089562937723748E-002 -9.255190828864908E-002
 -9.420818720006073E-002 -9.586446611147241E-002 -9.752074502288489E-002
 -9.917702393429637E-002 -0.100833302845708      -0.102489581757119     
 -0.104145860668532      -0.105802139579943      -0.107458418491355     
 -0.109114697402766      -0.110770976314178      -0.112427255225590     
 -0.114083534137001      -0.115739813048413      -7.866820172786167E-002
 -8.032448063927307E-002 -8.198075955068390E-002 -8.363703846209633E-002
 -8.529331737350770E-002 -8.694959628491965E-002 -8.860587519633142E-002
 -9.026215410774283E-002 -9.191843301915477E-002 -9.357471193056685E-002
 -9.523099084197773E-002 -9.688726975339026E-002 -9.854354866480142E-002
 -0.100199827576213      -0.101856106487626      -0.103512385399036     
 -0.105168664310449      -0.106824943221861      -0.108481222133272     
 -0.110137501044684      -0.111793779956095      -0.113450058867507     
 -0.115106337778918      -0.116762616690331      -0.118418895601742     
 -0.120075174513154      -8.232121312799351E-002 -8.397749203940441E-002
 -8.563377095081660E-002 -8.729004986222859E-002 -8.894632877364023E-002
 -9.060260768505213E-002 -9.225888659646264E-002 -9.391516550787504E-002
 -9.557144441928671E-002 -9.722772333069879E-002 -9.888400224211061E-002
 -0.100540281153522      -0.102196560064934      -0.103852838976346     
 -0.105509117887757      -0.107165396799169      -0.108821675710581     
 -0.110477954621992      -0.112134233533404      -0.113790512444816     
 -0.115446791356228      -0.117103070267639      -0.118759349179051     
 -0.120415628090462      -0.122071907001875      -0.123728185913287     
 -8.522937042565536E-002 -8.688564933706708E-002 -8.854192824847829E-002
 -9.019820715989094E-002 -9.185448607130223E-002 -9.351076498271407E-002
 -9.516704389412467E-002 -9.682332280553724E-002 -9.847960171694897E-002
 -0.100135880628360      -0.101792159539772      -0.103448438451184     
 -0.105104717362596      -0.106760996274008      -0.108417275185420     
 -0.110073554096831      -0.111729833008243      -0.113386111919653     
 -0.115042390831066      -0.116698669742478      -0.118354948653890     
 -0.120011227565301      -0.121667506476712      -0.123323785388125     
 -0.124980064299536      -0.126636343210948      -8.734291424319023E-002
 -8.899919315460207E-002 -9.065547206601367E-002 -9.231175097742475E-002