 Title = "Wing and Wake"
 VARIABLES = "X" "Y" "Z" "GAM"
 Zone I=   26 J=   25 K=1  T="Blade"
 DATAPACKING=BLOCK
 VARLOCATION=([4]=CELLCENTERED)
  7.400437600835827E-002  7.235978811848862E-002  7.071520022861898E-002
  6.907061233874934E-002  6.742602444887973E-002  6.578143655901003E-002
  6.413684866914045E-002  6.249226077927077E-002  6.084767288940115E-002
  5.920308499953148E-002  5.755849710966190E-002  5.591390921979220E-002
  5.426932132992263E-002  5.262473344005290E-002  5.098014555018330E-002
  4.933555766031369E-002  4.769096977044401E-002  4.604638188057441E-002
  4.440179399070477E-002  4.275720610083511E-002  4.111261821096548E-002
  3.946803032109582E-002  3.782344243122619E-002  3.617885454135655E-002
  3.453426665148692E-002  3.288967876161730E-002  7.447393681114209E-002
  7.282934892127248E-002  7.118476103140284E-002  6.954017314153323E-002
  6.789558525166352E-002  6.625099736179392E-002  6.460640947192425E-002
  6.296182158205457E-002  6.131723369218497E-002  5.967264580231536E-002
  5.802805791244570E-002  5.638347002257605E-002  5.473888213270642E-002
  5.309429424283679E-002  5.144970635296713E-002  4.980511846309754E-002
  4.816053057322784E-002  4.651594268335821E-002  4.487135479348860E-002
  4.322676690361894E-002  4.158217901374932E-002  3.993759112387966E-002
  3.829300323401006E-002  3.664841534414040E-002  3.500382745427075E-002
  3.335923956440112E-002  7.587458490397107E-002  7.422999701410146E-002
  7.258540912423181E-002  7.094082123436216E-002  6.929623334449254E-002
  6.765164545462286E-002  6.600705756475325E-002  6.436246967488360E-002
  6.271788178501395E-002  6.107329389514435E-002  5.942870600527467E-002
  5.778411811540506E-002  5.613953022553542E-002  5.449494233566581E-002
  5.285035444579614E-002  5.120576655592649E-002  4.956117866605688E-002
  4.791659077618722E-002  4.627200288631759E-002  4.462741499644795E-002
  4.298282710657833E-002  4.133823921670866E-002  3.969365132683901E-002
  3.804906343696938E-002  3.640447554709975E-002  3.475988765723011E-002
  7.818235480964397E-002  7.653776691977432E-002  7.489317902990471E-002
  7.324859114003508E-002  7.160400325016537E-002  6.995941536029576E-002
  6.831482747042610E-002  6.667023958055647E-002  6.502565169068683E-002
  6.338106380081719E-002  6.173647591094757E-002  6.009188802107794E-002
  5.844730013120829E-002  5.680271224133863E-002  5.515812435146903E-002
  5.351353646159934E-002  5.186894857172974E-002  5.022436068186008E-002
  4.857977279199048E-002  4.693518490212080E-002  4.529059701225118E-002
  4.364600912238151E-002  4.200142123251192E-002  4.035683334264226E-002
  3.871224545277261E-002  3.706765756290299E-002  8.135775994523987E-002
  7.971317205537026E-002  7.806858416550067E-002  7.642399627563100E-002
  7.477940838576135E-002  7.313482049589166E-002  7.149023260602208E-002
  6.984564471615247E-002  6.820105682628279E-002  6.655646893641316E-002
  6.491188104654351E-002  6.326729315667390E-002  6.162270526680427E-002
  5.997811737693459E-002  5.833352948706497E-002  5.668894159719533E-002
  5.504435370732572E-002  5.339976581745604E-002  5.175517792758642E-002
  5.011059003771677E-002  4.846600214784712E-002  4.682141425797749E-002
  4.517682636810788E-002  4.353223847823821E-002  4.188765058836857E-002
  4.024306269849891E-002  8.534646824850027E-002  8.370188035863066E-002
  8.205729246876101E-002  8.041270457889131E-002  7.876811668902173E-002
  7.712352879915206E-002  7.547894090928244E-002  7.383435301941278E-002
  7.218976512954317E-002  7.054517723967356E-002  6.890058934980392E-002
  6.725600145993424E-002  6.561141357006464E-002  6.396682568019499E-002
  6.232223779032534E-002  6.067764990045562E-002  5.903306201058607E-002
  5.738847412071642E-002  5.574388623084675E-002  5.409929834097713E-002
  5.245471045110751E-002  5.081012256123783E-002  4.916553467136824E-002
  4.752094678149859E-002  4.587635889162896E-002  4.423177100175935E-002
  9.008023181447744E-002  8.843564392460779E-002  8.679105603473806E-002
  8.514646814486850E-002  8.350188025499890E-002  8.185729236512926E-002
  8.021270447525958E-002  7.856811658538997E-002  7.692352869552031E-002
  7.527894080565067E-002  7.363435291578095E-002  7.198976502591138E-002
  7.034517713604178E-002  6.870058924617216E-002  6.705600135630246E-002
  6.541141346643285E-002  6.376682557656321E-002  6.212223768669355E-002
  6.047764979682392E-002  5.883306190695425E-002  5.718847401708464E-002
  5.554388612721498E-002  5.389929823734539E-002  5.225471034747571E-002
  5.061012245760611E-002  4.896553456773646E-002  9.547805463611028E-002
  9.383346674624062E-002  9.218887885637102E-002  9.054429096650135E-002
  8.889970307663170E-002  8.725511518676209E-002  8.561052729689242E-002
  8.396593940702284E-002  8.232135151715311E-002  8.067676362728354E-002
  7.903217573741393E-002  7.738758784754422E-002  7.574299995767460E-002
  7.409841206780490E-002  7.245382417793533E-002  7.080923628806564E-002
  6.916464839819604E-002  6.752006050832643E-002  6.587547261845682E-002
  6.423088472858711E-002  6.258629683871750E-002  6.094170894884783E-002
  5.929712105897821E-002  5.765253316910856E-002  5.600794527923887E-002
  5.436335738936928E-002  0.101447578468361       9.980299057849178E-002
  9.815840268862208E-002  9.651381479875257E-002  9.486922690888287E-002
  9.322463901901326E-002  9.158005112914361E-002  8.993546323927396E-002
  8.829087534940427E-002  8.664628745953469E-002  8.500169956966505E-002
  8.335711167979536E-002  8.171252378992577E-002  8.006793590005609E-002
  7.842334801018645E-002  7.677876012031681E-002  7.513417223044724E-002
  7.348958434057756E-002  7.184499645070795E-002  7.020040856083824E-002
  6.855582067096866E-002  6.691123278109901E-002  6.526664489122939E-002
  6.362205700135973E-002  6.197746911149007E-002  6.033288122162044E-002
  0.107886663103396       0.106242075213527       0.104597487323657     
  0.102952899433788       0.101308311543918       9.966372365404827E-002
  9.801913576417862E-002  9.637454787430895E-002  9.472995998443935E-002
  9.308537209456962E-002  9.144078420470003E-002  8.979619631483038E-002
  8.815160842496073E-002  8.650702053509114E-002  8.486243264522143E-002
  8.321784475535188E-002  8.157325686548217E-002  7.992866897561256E-002
  7.828408108574293E-002  7.663949319587324E-002  7.499490530600367E-002
  7.335031741613400E-002  7.170572952626433E-002  7.006114163639471E-002
  6.841655374652503E-002  6.677196585665551E-002  0.114685134017858     
  0.113040546127989       0.111395958238119       0.109751370348249     
  0.108106782458380       0.106462194568510       0.104817606678640     
  0.103173018788771       0.101528430898901       9.988384300903146E-002
  9.823925511916186E-002  9.659466722929221E-002  9.495007933942255E-002
  9.330549144955300E-002  9.166090355968330E-002  9.001631566981362E-002
  8.837172777994404E-002  8.672713989007437E-002  8.508255200020476E-002
  8.343796411033508E-002  8.179337622046544E-002  8.014878833059577E-002
  7.850420044072623E-002  7.685961255085659E-002  7.521502466098688E-002
  7.357043677111730E-002  0.121726667489508       0.120082079599639     
  0.118437491709769       0.116792903819899       0.115148315930030     
  0.113503728040160       0.111859140150290       0.110214552260421     
  0.108569964370551       0.106925376480681       0.105280788590812     
  0.103636200700942       0.101991612811072       0.100347024921203     
  9.870243703133336E-002  9.705784914146362E-002  9.541326125159409E-002
  9.376867336172436E-002  9.212408547185476E-002  9.047949758198517E-002
  8.883490969211552E-002  8.719032180224578E-002  8.554573391237631E-002
  8.390114602250651E-002  8.225655813263705E-002  8.061197024276734E-002
  0.128890780928365       0.127246193038495       0.125601605148625     
  0.123957017258756       0.122312429368886       0.120667841479017     
  0.119023253589147       0.117378665699277       0.115734077809408     
  0.114089489919538       0.112444902029668       0.110800314139799     
  0.109155726249929       0.107511138360059       0.105866550470190     
  0.104221962580320       0.102577374690450       0.100932786800581     
  9.928819891071114E-002  9.764361102084138E-002  9.599902313097182E-002
  9.435443524110219E-002  9.270984735123250E-002  9.106525946136289E-002
  8.942067157149323E-002  8.777608368162367E-002  0.136054894367221     
  0.134410306477351       0.132765718587482       0.131121130697612     
  0.129476542807742       0.127831954917873       0.126187367028003     
  0.124542779138133       0.122898191248264       0.121253603358394     
  0.119609015468525       0.117964427578655       0.116319839688785     
  0.114675251798916       0.113030663909046       0.111386076019176     
  0.109741488129307       0.108096900239437       0.106452312349567     
  0.104807724459698       0.103163136569828       0.101518548679958     
  9.987396079008888E-002  9.822937290021924E-002  9.658478501034957E-002
  9.494019712047988E-002  0.143096427838871       0.141451839949001     
  0.139807252059132       0.138162664169262       0.136518076279392     
  0.134873488389523       0.133228900499653       0.131584312609784     
  0.129939724719914       0.128295136830044       0.126650548940175     
  0.125005961050305       0.123361373160435       0.121716785270566     
  0.120072197380696       0.118427609490826       0.116783021600957     
  0.115138433711087       0.113493845821217       0.111849257931348     
  0.110204670041478       0.108560082151608       0.106915494261739     
  0.105270906371869       0.103626318482000       0.101981730592130     
  0.149894898753333       0.148250310863463       0.146605722973593     
  0.144961135083724       0.143316547193854       0.141671959303985     
  0.140027371414115       0.138382783524245       0.136738195634376     
  0.135093607744506       0.133449019854636       0.131804431964767     
  0.130159844074897       0.128515256185027       0.126870668295158     
  0.125226080405288       0.123581492515418       0.121936904625549     
  0.120292316735679       0.118647728845810       0.117003140955940     
  0.115358553066070       0.113713965176201       0.112069377286331     
  0.110424789396461       0.108780201506592       0.156333983388368     
  0.154689395498498       0.153044807608628       0.151400219718759     
  0.149755631828889       0.148111043939019       0.146466456049150     
  0.144821868159280       0.143177280269411       0.141532692379541     
  0.139888104489671       0.138243516599802       0.136598928709932     
  0.134954340820062       0.133309752930193       0.131665165040323     
  0.130020577150453       0.128375989260584       0.126731401370714     
  0.125086813480845       0.123442225590975       0.121797637701105     
  0.120153049811236       0.118508461921366       0.116863874031496     
  0.115219286141627       0.162303507220619       0.160658919330749     
  0.159014331440880       0.157369743551010       0.155725155661140     
  0.154080567771271       0.152435979881401       0.150791391991532     
  0.149146804101662       0.147502216211792       0.145857628321923     
  0.144213040432053       0.142568452542183       0.140923864652314     
  0.139279276762444       0.137634688872574       0.135990100982705     
  0.134345513092835       0.132700925202965       0.131056337313096     
  0.129411749423226       0.127767161533357       0.126122573643487     
  0.124477985753617       0.122833397863748       0.121188809973878     
  0.167701330042252       0.166056742152382       0.164412154262512     
  0.162767566372643       0.161122978482773       0.159478390592904     
  0.157833802703034       0.156189214813164       0.154544626923295     
  0.152900039033425       0.151255451143555       0.149610863253686     
  0.147966275363816       0.146321687473946       0.144677099584077     
  0.143032511694207       0.141387923804337       0.139743335914468     
  0.138098748024598       0.136454160134729       0.134809572244859     
  0.133164984354989       0.131520396465120       0.129875808575250     
  0.128231220685381       0.126586632795511       0.172435093608229     
  0.170790505718359       0.169145917828490       0.167501329938620     
  0.165856742048750       0.164212154158881       0.162567566269011     
  0.160922978379141       0.159278390489272       0.157633802599402     
  0.155989214709533       0.154344626819663       0.152700038929793     
  0.151055451039924       0.149410863150054       0.147766275260184     
  0.146121687370315       0.144477099480445       0.142832511590575     
  0.141187923700706       0.139543335810836       0.137898747920967     
  0.136254160031097       0.134609572141227       0.132964984251358     
  0.131320396361488       0.176423801911489       0.174779214021620     
  0.173134626131750       0.171490038241880       0.169845450352011     
  0.168200862462141       0.166556274572271       0.164911686682402     
  0.163267098792532       0.161622510902662       0.159977923012793     
  0.158333335122923       0.156688747233054       0.155044159343184     
  0.153399571453314       0.151754983563445       0.150110395673575     
  0.148465807783705       0.146821219893836       0.145176632003966     
  0.143532044114096       0.141887456224227       0.140242868334357     
  0.138598280444488       0.136953692554618       0.135309104664748     
  0.179599207047085       0.177954619157216       0.176310031267346     
  0.174665443377476       0.173020855487607       0.171376267597737     
  0.169731679707867       0.168087091817998       0.166442503928128     
  0.164797916038259       0.163153328148389       0.161508740258519     
  0.159864152368650       0.158219564478780       0.156574976588910     
  0.154930388699041       0.153285800809171       0.151641212919301     
  0.149996625029432       0.148352037139562       0.146707449249693     
  0.145062861359823       0.143418273469953       0.141773685580084     
  0.140129097690214       0.138484509800344       0.181906976952758     
  0.180262389062888       0.178617801173019       0.176973213283149     
  0.175328625393280       0.173684037503410       0.172039449613540     
  0.170394861723671       0.168750273833801       0.167105685943931     
  0.165461098054062       0.163816510164192       0.162171922274322     
  0.160527334384453       0.158882746494583       0.157238158604713     
  0.155593570714844       0.153948982824974       0.152304394935105     
  0.150659807045235       0.149015219155365       0.147370631265496     
  0.145726043375626       0.144081455485756       0.142436867595887     
  0.140792279706017       0.183307625045587       0.181663037155717     
  0.180018449265848       0.178373861375978       0.176729273486109     
  0.175084685596239       0.173440097706369       0.171795509816500     
  0.170150921926630       0.168506334036760       0.166861746146891     
  0.165217158257021       0.163572570367151       0.161927982477282     
  0.160283394587412       0.158638806697543       0.156994218807673     
  0.155349630917803       0.153705043027934       0.152060455138064     
  0.150415867248194       0.148771279358325       0.147126691468455     
  0.145482103578585       0.143837515688716       0.142192927798846     
  0.183777185848371       0.182132597958501       0.180488010068632     
  0.178843422178762       0.177198834288892       0.175554246399023     
  0.173909658509153       0.172265070619283       0.170620482729414     
  0.168975894839544       0.167331306949675       0.165686719059805     
  0.164042131169935       0.162397543280066       0.160752955390196     
  0.159108367500326       0.157463779610457       0.155819191720587     
  0.154174603830717       0.152530015940848       0.150885428050978     
  0.149240840161109       0.147596252271239       0.145951664381369     
  0.144307076491500       0.142662488601630     
 -9.796607745344066E-002 -9.845529642259115E-002 -9.894451539174164E-002
 -9.943373436089216E-002 -9.992295333004263E-002 -0.100412172299193     
 -0.100901391268344      -0.101390610237494      -0.101879829206645     
 -0.102369048175795      -0.102858267144946      -0.103347486114096     
 -0.103836705083247      -0.104325924052397      -0.104815143021547     
 -0.105304361990698      -0.105793580959848      -0.106282799928999     
 -0.106772018898149      -0.107261237867300      -0.107750456836450     
 -0.108239675805601      -0.108728894774751      -0.109218113743902     
 -0.109707332713052      -0.110196551682203      -9.954458126975167E-002
 -0.100033800238902      -0.100523019208053      -0.101012238177203     
 -0.101501457146354      -0.101990676115504      -0.102479895084655     
 -0.102969114053805      -0.103458333022956      -0.103947551992106     
 -0.104436770961257      -0.104925989930407      -0.105415208899557     
 -0.105904427868708      -0.106393646837858      -0.106882865807009     
 -0.107372084776159      -0.107861303745310      -0.108350522714460     
 -0.108839741683611      -0.109328960652761      -0.109818179621912     
 -0.110307398591062      -0.110796617560213      -0.111285836529363     
 -0.111775055498514      -0.104253084080744      -0.104742303049894     
 -0.105231522019044      -0.105720740988195      -0.106209959957345     
 -0.106699178926496      -0.107188397895646      -0.107677616864797     
 -0.108166835833947      -0.108656054803098      -0.109145273772248     
 -0.109634492741399      -0.110123711710549      -0.110612930679700     
 -0.111102149648850      -0.111591368618001      -0.112080587587151     
 -0.112569806556302      -0.113059025525452      -0.113548244494603     
 -0.114037463463753      -0.114526682432904      -0.115015901402054     
 -0.115505120371205      -0.115994339340355      -0.116483558309506     
 -0.112011022097877      -0.112500241067027      -0.112989460036178     
 -0.113478679005328      -0.113967897974478      -0.114457116943629     
 -0.114946335912779      -0.115435554881930      -0.115924773851080     
 -0.116413992820231      -0.116903211789381      -0.117392430758532     
 -0.117881649727682      -0.118370868696833      -0.118860087665983     
 -0.119349306635134      -0.119838525604284      -0.120327744573435     
 -0.120816963542585      -0.121306182511736      -0.121795401480886     
 -0.122284620450037      -0.122773839419187      -0.123263058388338     
 -0.123752277357488      -0.124241496326639      -0.122685654850771     
 -0.123174873819922      -0.123664092789072      -0.124153311758222     
 -0.124642530727373      -0.125131749696523      -0.125620968665674     
 -0.126110187634824      -0.126599406603975      -0.127088625573125     
 -0.127577844542276      -0.128067063511426      -0.128556282480577     
 -0.129045501449727      -0.129534720418878      -0.130023939388028     
 -0.130513158357179      -0.131002377326329      -0.131491596295480     
 -0.131980815264630      -0.132470034233781      -0.132959253202931     
 -0.133448472172082      -0.133937691141232      -0.134426910110383     
 -0.134916129079533      -0.136094336413457      -0.136583555382608     
 -0.137072774351758      -0.137561993320909      -0.138051212290059     
 -0.138540431259210      -0.139029650228360      -0.139518869197511     
 -0.140008088166661      -0.140497307135812      -0.140986526104962     
 -0.141475745074113      -0.141964964043263      -0.142454183012414     
 -0.142943401981564      -0.143432620950714      -0.143921839919865     
 -0.144411058889015      -0.144900277858166      -0.145389496827316     
 -0.145878715796467      -0.146367934765617      -0.146857153734768     
 -0.147346372703918      -0.147835591673069      -0.148324810642219     
 -0.152007640526809      -0.152496859495960      -0.152986078465110     
 -0.153475297434261      -0.153964516403411      -0.154453735372562     
 -0.154942954341712      -0.155432173310862      -0.155921392280013     
 -0.156410611249163      -0.156899830218314      -0.157389049187464     
 -0.157878268156615      -0.158367487125765      -0.158856706094916     
 -0.159345925064066      -0.159835144033217      -0.160324363002367     
 -0.160813581971518      -0.161302800940668      -0.161792019909819     
 -0.162281238878969      -0.162770457848120      -0.163259676817270     
 -0.163748895786421      -0.164238114755571      -0.170153286145446     
 -0.170642505114596      -0.171131724083747      -0.171620943052897     
 -0.172110162022048      -0.172599380991198      -0.173088599960349     
 -0.173577818929499      -0.174067037898649      -0.174556256867800     
 -0.175045475836950      -0.175534694806101      -0.176023913775251     
 -0.176513132744402      -0.177002351713552      -0.177491570682703     
 -0.177980789651853      -0.178470008621004      -0.178959227590154     
 -0.179448446559305      -0.179937665528455      -0.180426884497606     
 -0.180916103466756      -0.181405322435907      -0.181894541405057     
 -0.182383760374208      -0.190220796241909      -0.190710015211059     
 -0.191199234180209      -0.191688453149360      -0.192177672118510     
 -0.192666891087661      -0.193156110056811      -0.193645329025962     
 -0.194134547995112      -0.194623766964263      -0.195112985933413     
 -0.195602204902564      -0.196091423871714      -0.196580642840865     
 -0.197069861810015      -0.197559080779166      -0.198048299748316     
 -0.198537518717467      -0.199026737686617      -0.199515956655768     
 -0.200005175624918      -0.200494394594069      -0.200983613563219     
 -0.201472832532370      -0.201962051501520      -0.202451270470671     
 -0.211866810154682      -0.212356029123833      -0.212845248092983     
 -0.213334467062134      -0.213823686031284      -0.214312905000435     
 -0.214802123969585      -0.215291342938736      -0.215780561907886     
 -0.216269780877037      -0.216758999846187      -0.217248218815338     
 -0.217737437784488      -0.218226656753639      -0.218715875722789     
 -0.219205094691940      -0.219694313661090      -0.220183532630241     
 -0.220672751599391      -0.221161970568541      -0.221651189537692     
 -0.222140408506842      -0.222629627475993      -0.223118846445143     
 -0.223608065414294      -0.224097284383444      -0.234720958584311     
 -0.235210177553461      -0.235699396522612      -0.236188615491762     
 -0.236677834460913      -0.237167053430063      -0.237656272399214     
 -0.238145491368364      -0.238634710337514      -0.239123929306665     
 -0.239613148275815      -0.240102367244966      -0.240591586214116     
 -0.241080805183267      -0.241570024152417      -0.242059243121568     
 -0.242548462090718      -0.243037681059869      -0.243526900029019     
 -0.244016118998170      -0.244505337967320      -0.244994556936471     
 -0.245483775905621      -0.245972994874772      -0.246462213843922     
 -0.246951432813073      -0.258392200714796      -0.258881419683946     
 -0.259370638653097      -0.259859857622247      -0.260349076591398     
 -0.260838295560548      -0.261327514529698      -0.261816733498849     
 -0.262305952467999      -0.262795171437150      -0.263284390406300     
 -0.263773609375451      -0.264262828344601      -0.264752047313752     
 -0.265241266282902      -0.265730485252053      -0.266219704221203     
 -0.266708923190354      -0.267198142159504      -0.267687361128655     
 -0.268176580097805      -0.268665799066956      -0.269155018036106     
 -0.269644237005257      -0.270133455974407      -0.270622674943558     
 -0.282475515030376      -0.282964733999527      -0.283453952968677     
 -0.283943171937828      -0.284432390906978      -0.284921609876129     
 -0.285410828845279      -0.285900047814430      -0.286389266783580     
 -0.286878485752731      -0.287367704721881      -0.287856923691032     
 -0.288346142660182      -0.288835361629333      -0.289324580598483     
 -0.289813799567634      -0.290303018536784      -0.290792237505935     
 -0.291281456475085      -0.291770675444235      -0.292259894413386     
 -0.292749113382536      -0.293238332351687      -0.293727551320838     
 -0.294216770289988      -0.294705989259138      -0.306558829345957     
 -0.307048048315108      -0.307537267284258      -0.308026486253408     
 -0.308515705222559      -0.309004924191709      -0.309494143160860     
 -0.309983362130010      -0.310472581099161      -0.310961800068312     
 -0.311451019037462      -0.311940238006612      -0.312429456975763     
 -0.312918675944913      -0.313407894914064      -0.313897113883214     
 -0.314386332852365      -0.314875551821515      -0.315364770790666     
 -0.315853989759816      -0.316343208728967      -0.316832427698117     
 -0.317321646667268      -0.317810865636418      -0.318300084605569     
 -0.318789303574719      -0.330230071476442      -0.330719290445592     
 -0.331208509414743      -0.331697728383894      -0.332186947353044     
 -0.332676166322194      -0.333165385291345      -0.333654604260496     
 -0.334143823229646      -0.334633042198796      -0.335122261167947     
 -0.335611480137097      -0.336100699106248      -0.336589918075398     
 -0.337079137044549      -0.337568356013699      -0.338057574982850     
 -0.338546793952000      -0.339036012921151      -0.339525231890301     
 -0.340014450859452      -0.340503669828602      -0.340992888797753     
 -0.341482107766903      -0.341971326736054      -0.342460545705204     
 -0.353084219906071      -0.353573438875221      -0.354062657844371     
 -0.354551876813522      -0.355041095782672      -0.355530314751823     
 -0.356019533720973      -0.356508752690124      -0.356997971659274     
 -0.357487190628424      -0.357976409597575      -0.358465628566726     
 -0.358954847535876      -0.359444066505027      -0.359933285474177     
 -0.360422504443328      -0.360911723412478      -0.361400942381629     
 -0.361890161350779      -0.362379380319930      -0.362868599289080     
 -0.363357818258231      -0.363847037227381      -0.364336256196531     
 -0.364825475165682      -0.365314694134833      -0.374730233818844     
 -0.375219452787995      -0.375708671757145      -0.376197890726296     
 -0.376687109695446      -0.377176328664596      -0.377665547633747     
 -0.378154766602897      -0.378643985572048      -0.379133204541199     
 -0.379622423510349      -0.380111642479499      -0.380600861448650     
 -0.381090080417800      -0.381579299386951      -0.382068518356101     
 -0.382557737325252      -0.383046956294402      -0.383536175263553     
 -0.384025394232703      -0.384514613201854      -0.385003832171004     
 -0.385493051140155      -0.385982270109305      -0.386471489078456     
 -0.386960708047606      -0.394797743915307      -0.395286962884458     
 -0.395776181853608      -0.396265400822758      -0.396754619791909     
 -0.397243838761060      -0.397733057730210      -0.398222276699360     
 -0.398711495668511      -0.399200714637661      -0.399689933606812     
 -0.400179152575962      -0.400668371545113      -0.401157590514263     
 -0.401646809483414      -0.402136028452564      -0.402625247421715     
 -0.403114466390865      -0.403603685360016      -0.404092904329166     
 -0.404582123298316      -0.405071342267467      -0.405560561236618     
 -0.406049780205768      -0.406538999174919      -0.407028218144069     
 -0.412943389533944      -0.413432608503094      -0.413921827472245     
 -0.414411046441395      -0.414900265410546      -0.415389484379696     
 -0.415878703348846      -0.416367922317997      -0.416857141287147     
 -0.417346360256298      -0.417835579225448      -0.418324798194599     
 -0.418814017163749      -0.419303236132900      -0.419792455102050     
 -0.420281674071201      -0.420770893040351      -0.421260112009502     
 -0.421749330978652      -0.422238549947803      -0.422727768916953     
 -0.423216987886104      -0.423706206855254      -0.424195425824405     
 -0.424684644793555      -0.425173863762706      -0.428856693647296     
 -0.429345912616446      -0.429835131585596      -0.430324350554747     
 -0.430813569523897      -0.431302788493048      -0.431792007462198     
 -0.432281226431349      -0.432770445400499      -0.433259664369650     
 -0.433748883338800      -0.434238102307951      -0.434727321277101     
 -0.435216540246252      -0.435705759215402      -0.436194978184553     
 -0.436684197153703      -0.437173416122854      -0.437662635092004     
 -0.438151854061155      -0.438641073030305      -0.439130291999456     
 -0.439619510968606      -0.440108729937757      -0.440597948906907     
 -0.441087167876058      -0.442265375209982      -0.442754594179132     
 -0.443243813148283      -0.443733032117433      -0.444222251086584     
 -0.444711470055734      -0.445200689024885      -0.445689907994035     
 -0.446179126963186      -0.446668345932336      -0.447157564901487     
 -0.447646783870637      -0.448136002839787      -0.448625221808938     
 -0.449114440778088      -0.449603659747239      -0.450092878716389     
 -0.450582097685540      -0.451071316654690      -0.451560535623841     
 -0.452049754592992      -0.452538973562142      -0.453028192531292     
 -0.453517411500443      -0.454006630469593      -0.454495849438744     
 -0.452940007962876      -0.453429226932027      -0.453918445901177     
 -0.454407664870328      -0.454896883839478      -0.455386102808629     
 -0.455875321777779      -0.456364540746930      -0.456853759716080     
 -0.457342978685230      -0.457832197654381      -0.458321416623531     
 -0.458810635592682      -0.459299854561832      -0.459789073530983     
 -0.460278292500133      -0.460767511469284      -0.461256730438434     
 -0.461745949407585      -0.462235168376735      -0.462724387345886     
 -0.463213606315036      -0.463702825284187      -0.464192044253337     
 -0.464681263222488      -0.465170482191638      -0.460697945980009     
 -0.461187164949160      -0.461676383918310      -0.462165602887461     