 Title = "Wing and Wake"
 VARIABLES = "X" "Y" "Z" "GAM"
 Zone I=   26 J=   25 K=1  T="Blade"
 DATAPACKING=BLOCK
 VARLOCATION=([4]=CELLCENTERED)
  2.057666160599368E-002  2.206035423908949E-002  2.354404687218536E-002
  2.502773950528110E-002  2.651143213837691E-002  2.799512477147267E-002
  2.947881740456849E-002  3.096251003766414E-002  3.244620267075993E-002
  3.392989530385594E-002  3.541358793695160E-002  3.689728057004742E-002
  3.838097320314324E-002  3.986466583623902E-002  4.134835846933482E-002
  4.283205110243048E-002  4.431574373552642E-002  4.579943636862236E-002
  4.728312900171797E-002  4.876682163481377E-002  5.025051426790957E-002
  5.173420690100540E-002  5.321789953410103E-002  5.470159216719701E-002
  5.618528480029266E-002  5.766897743338848E-002  2.140381064385369E-002
  2.288750327694948E-002  2.437119591004532E-002  2.585488854314109E-002
  2.733858117623694E-002  2.882227380933263E-002  3.030596644242846E-002
  3.178965907552429E-002  3.327335170862005E-002  3.475704434171583E-002
  3.624073697481161E-002  3.772442960790739E-002  3.920812224100316E-002
  4.069181487409903E-002  4.217550750719472E-002  4.365920014029061E-002
  4.514289277338637E-002  4.662658540648212E-002  4.811027803957803E-002
  4.959397067267374E-002  5.107766330576947E-002  5.256135593886541E-002
  5.404504857196116E-002  5.552874120505697E-002  5.701243383815283E-002
  5.849612647124848E-002  2.387110500806671E-002  2.535479764116245E-002
  2.683849027425833E-002  2.832218290735408E-002  2.980587554044984E-002
  3.128956817354579E-002  3.277326080664147E-002  3.425695343973716E-002
  3.574064607283309E-002  3.722433870592877E-002  3.870803133902446E-002
  4.019172397212042E-002  4.167541660521618E-002  4.315910923831198E-002
  4.464280187140775E-002  4.612649450450350E-002  4.761018713759942E-002
  4.909387977069523E-002  5.057757240379105E-002  5.206126503688677E-002
  5.354495766998257E-002  5.502865030307833E-002  5.651234293617419E-002
  5.799603556926983E-002  5.947972820236561E-002  6.096342083546159E-002
  2.793632860799791E-002  2.942002124109378E-002  3.090371387418958E-002
  3.238740650728523E-002  3.387109914038114E-002  3.535479177347688E-002
  3.683848440657261E-002  3.832217703966848E-002  3.980586967276422E-002
  4.128956230586014E-002  4.277325493895581E-002  4.425694757205173E-002
  4.574064020514739E-002  4.722433283824326E-002  4.870802547133921E-002
  5.019171810443478E-002  5.167541073753065E-002  5.315910337062628E-002
  5.464279600372238E-002  5.612648863681811E-002  5.761018126991375E-002
  5.909387390300956E-002  6.057756653610544E-002  6.206125916920109E-002
  6.354495180229704E-002  6.502864443539268E-002  3.352992434075969E-002
  3.501361697385540E-002  3.649730960695116E-002  3.798100224004695E-002
  3.946469487314278E-002  4.094838750623864E-002  4.243208013933435E-002
  4.391577277243017E-002  4.539946540552579E-002  4.688315803862173E-002
  4.836685067171741E-002  4.985054330481339E-002  5.133423593790896E-002
  5.281792857100490E-002  5.430162120410072E-002  5.578531383719627E-002
  5.726900647029218E-002  5.875269910338800E-002  6.023639173648381E-002
  6.172008436957972E-002  6.320377700267542E-002  6.468746963577116E-002
  6.617116226886696E-002  6.765485490196267E-002  6.913854753505859E-002
  7.062224016815440E-002  4.055618423252640E-002  4.203987686562213E-002
  4.352356949871788E-002  4.500726213181369E-002  4.649095476490942E-002
  4.797464739800523E-002  4.945834003110108E-002  5.094203266419686E-002
  5.242572529729281E-002  5.390941793038841E-002  5.539311056348418E-002
  5.687680319657998E-002  5.836049582967582E-002  5.984418846277166E-002
  6.132788109586745E-002  6.281157372896332E-002  6.429526636205915E-002
  6.577895899515485E-002  6.726265162825044E-002  6.874634426134638E-002
  7.023003689444209E-002  7.171372952753774E-002  7.319742216063369E-002
  7.468111479372957E-002  7.616480742682530E-002  7.764850005992099E-002
  4.889488702850291E-002  5.037857966159858E-002  5.186227229469423E-002
  5.334596492779021E-002  5.482965756088591E-002  5.631335019398189E-002
  5.779704282707771E-002  5.928073546017309E-002  6.076442809326916E-002
  6.224812072636497E-002  6.373181335946074E-002  6.521550599255663E-002
  6.669919862565230E-002  6.818289125874794E-002  6.966658389184407E-002
  7.115027652493969E-002  7.263396915803548E-002  7.411766179113138E-002
  7.560135442422718E-002  7.708504705732282E-002  7.856873969041879E-002
  8.005243232351440E-002  8.153612495661014E-002  8.301981758970615E-002
  8.450351022280198E-002  8.598720285589775E-002  5.840335521192479E-002
  5.988704784502066E-002  6.137074047811628E-002  6.285443311121221E-002
  6.433812574430794E-002  6.582181837740370E-002  6.730551101049968E-002
  6.878920364359535E-002  7.027289627669114E-002  7.175658890978712E-002
  7.324028154288262E-002  7.472397417597870E-002  7.620766680907411E-002
  7.769135944217029E-002  7.917505207526603E-002  8.065874470836157E-002
  8.214243734145765E-002  8.362612997455332E-002  8.510982260764915E-002
  8.659351524074488E-002  8.807720787384068E-002  8.956090050693645E-002
  9.104459314003212E-002  9.252828577312805E-002  9.401197840622390E-002
  9.549567103931968E-002  6.891889625592833E-002  7.040258888902400E-002
  7.188628152212008E-002  7.336997415521587E-002  7.485366678831153E-002
  7.633735942140743E-002  7.782105205450318E-002  7.930474468759890E-002
  8.078843732069441E-002  8.227212995379043E-002  8.375582258688628E-002
  8.523951521998213E-002  8.672320785307781E-002  8.820690048617370E-002
  8.969059311926951E-002  9.117428575236521E-002  9.265797838546101E-002
  9.414167101855701E-002  9.562536365165265E-002  9.710905628474850E-002
  9.859274891784421E-002  0.100076441550940       0.101560134184036     
  0.103043826817132       0.104527519450227       0.106011212083323     
  8.026158633779198E-002  8.174527897088769E-002  8.322897160398371E-002
  8.471266423707940E-002  8.619635687017498E-002  8.768004950327087E-002
  8.916374213636656E-002  9.064743476946244E-002  9.213112740255838E-002
  9.361482003565427E-002  9.509851266874984E-002  9.658220530184557E-002
  9.806589793494148E-002  9.954959056803706E-002  0.101033283201133     
  0.102516975834229       0.104000668467325       0.105484361100420     
  0.106968053733516       0.108451746366612       0.109935438999708     
  0.111419131632804       0.112902824265900       0.114386516898995     
  0.115870209532091       0.117353902165186       9.223734888542674E-002
  9.372104151852283E-002  9.520473415161831E-002  9.668842678471404E-002
  9.817211941781048E-002  9.965581205090583E-002  0.101139504684001     
  0.102623197317098       0.104106889950193       0.105590582583289     
  0.107074275216385       0.108557967849481       0.110041660482576     
  0.111525353115672       0.113009045748768       0.114492738381864     
  0.115976431014959       0.117460123648055       0.118943816281151     
  0.120427508914247       0.121911201547342       0.123394894180438     
  0.124878586813534       0.126362279446630       0.127845972079726     
  0.129329664712822       0.104641275281335       0.106124967914431     
  0.107608660547526       0.109092353180622       0.110576045813718     
  0.112059738446813       0.113543431079910       0.115027123713005     
  0.116510816346101       0.117994508979197       0.119478201612293     
  0.120961894245388       0.122445586878484       0.123929279511580     
  0.125412972144676       0.126896664777771       0.128380357410867     
  0.129864050043963       0.131347742677059       0.132831435310155     
  0.134315127943251       0.135798820576346       0.137282513209442     
  0.138766205842538       0.140249898475633       0.141733591108729     
  0.117261130905863       0.118744823538959       0.120228516172055     
  0.121712208805150       0.123195901438246       0.124679594071342     
  0.126163286704438       0.127646979337534       0.129130671970629     
  0.130614364603725       0.132098057236821       0.133581749869917     
  0.135065442503012       0.136549135136109       0.138032827769204     
  0.139516520402300       0.141000213035396       0.142483905668491     
  0.143967598301587       0.145451290934683       0.146934983567779     
  0.148418676200875       0.149902368833971       0.151386061467066     
  0.152869754100162       0.154353446733258       0.129880986530392     
  0.131364679163487       0.132848371796583       0.134332064429679     
  0.135815757062775       0.137299449695870       0.138783142328966     
  0.140266834962062       0.141750527595158       0.143234220228254     
  0.144717912861349       0.146201605494445       0.147685298127541     
  0.149168990760637       0.150652683393733       0.152136376026828     
  0.153620068659925       0.155103761293020       0.156587453926116     
  0.158071146559212       0.159554839192307       0.161038531825403     
  0.162522224458499       0.164005917091594       0.165489609724690     
  0.166973302357786       0.142284912926299       0.143768605559395     
  0.145252298192490       0.146735990825587       0.148219683458683     
  0.149703376091778       0.151187068724874       0.152670761357970     
  0.154154453991066       0.155638146624162       0.157121839257257     
  0.158605531890353       0.160089224523448       0.161572917156545     
  0.163056609789640       0.164540302422736       0.166023995055832     
  0.167507687688928       0.168991380322023       0.170475072955119     
  0.171958765588215       0.173442458221311       0.174926150854407     
  0.176409843487502       0.177893536120598       0.179377228753694     
  0.154260675473934       0.155744368107030       0.157228060740126     
  0.158711753373222       0.160195446006318       0.161679138639413     
  0.163162831272509       0.164646523905605       0.166130216538701     
  0.167613909171796       0.169097601804893       0.170581294437988     
  0.172064987071084       0.173548679704179       0.175032372337275     
  0.176516064970371       0.177999757603467       0.179483450236562     
  0.180967142869658       0.182450835502754       0.183934528135850     
  0.185418220768945       0.186901913402042       0.188385606035137     
  0.189869298668233       0.191352991301329       0.165603365555798     
  0.167087058188893       0.168570750821989       0.170054443455085     
  0.171538136088181       0.173021828721277       0.174505521354373     
  0.175989213987468       0.177472906620564       0.178956599253660     
  0.180440291886755       0.181923984519852       0.183407677152947     
  0.184891369786043       0.186375062419139       0.187858755052234     
  0.189342447685330       0.190826140318426       0.192309832951522     
  0.193793525584618       0.195277218217713       0.196760910850810     
  0.198244603483905       0.199728296117001       0.201211988750097     
  0.202695681383192       0.176118906599801       0.177602599232898     
  0.179086291865993       0.180569984499089       0.182053677132185     
  0.183537369765280       0.185021062398376       0.186504755031472     
  0.187988447664568       0.189472140297663       0.190955832930759     
  0.192439525563855       0.193923218196951       0.195406910830047     
  0.196890603463142       0.198374296096238       0.199857988729334     
  0.201341681362430       0.202825373995526       0.204309066628621     
  0.205792759261717       0.207276451894813       0.208760144527909     
  0.210243837161004       0.211727529794100       0.213211222427196     
  0.185627374783223       0.187111067416319       0.188594760049415     
  0.190078452682511       0.191562145315607       0.193045837948703     
  0.194529530581798       0.196013223214894       0.197496915847990     
  0.198980608481085       0.200464301114181       0.201947993747277     
  0.203431686380373       0.204915379013468       0.206399071646564     
  0.207882764279661       0.209366456912756       0.210850149545851     
  0.212333842178948       0.213817534812043       0.215301227445139     
  0.216784920078235       0.218268612711330       0.219752305344426     
  0.221235997977523       0.222719690610618       0.193966077579200     
  0.195449770212295       0.196933462845391       0.198417155478487     
  0.199900848111583       0.201384540744679       0.202868233377775     
  0.204351926010870       0.205835618643967       0.207319311277062     
  0.208803003910158       0.210286696543254       0.211770389176349     
  0.213254081809445       0.214737774442541       0.216221467075636     
  0.217705159708732       0.219188852341828       0.220672544974924     
  0.222156237608020       0.223639930241116       0.225123622874211     
  0.226607315507307       0.228091008140403       0.229574700773499     
  0.231058393406595       0.200992337470967       0.202476030104062     
  0.203959722737158       0.205443415370254       0.206927108003350     
  0.208410800636446       0.209894493269541       0.211378185902637     
  0.212861878535733       0.214345571168829       0.215829263801925     
  0.217312956435020       0.218796649068116       0.220280341701212     
  0.221764034334308       0.223247726967403       0.224731419600499     
  0.226215112233595       0.227698804866691       0.229182497499787     
  0.230666190132883       0.232149882765978       0.233633575399074     
  0.235117268032170       0.236600960665266       0.238084653298362     
  0.206585933203728       0.208069625836824       0.209553318469920     
  0.211037011103016       0.212520703736111       0.214004396369207     
  0.215488089002303       0.216971781635399       0.218455474268495     
  0.219939166901590       0.221422859534686       0.222906552167782     
  0.224390244800878       0.225873937433973       0.227357630067070     
  0.228841322700165       0.230325015333261       0.231808707966356     
  0.233292400599452       0.234776093232549       0.236259785865645     
  0.237743478498740       0.239227171131835       0.240710863764932     
  0.242194556398027       0.243678249031123       0.210651156803660     
  0.212134849436755       0.213618542069851       0.215102234702947     
  0.216585927336042       0.218069619969139       0.219553312602234     
  0.221037005235330       0.222520697868426       0.224004390501522     
  0.225488083134617       0.226971775767713       0.228455468400809     
  0.229939161033905       0.231422853667000       0.232906546300096     
  0.234390238933192       0.235873931566287       0.237357624199384     
  0.238841316832480       0.240325009465575       0.241808702098671     
  0.243292394731766       0.244776087364862       0.246259779997959     
  0.247743472631055       0.213118451167873       0.214602143800968     
  0.216085836434064       0.217569529067160       0.219053221700256     
  0.220536914333352       0.222020606966447       0.223504299599543     
  0.224987992232639       0.226471684865735       0.227955377498830     
  0.229439070131926       0.230922762765022       0.232406455398118     
  0.233890148031213       0.235373840664309       0.236857533297405     
  0.238341225930501       0.239824918563597       0.241308611196692     
  0.242792303829788       0.244275996462884       0.245759689095980     
  0.247243381729076       0.248727074362172       0.250210766995267     
  0.213945600205732       0.215429292838828       0.216912985471925     
  0.218396678105020       0.219880370738116       0.221364063371212     
  0.222847756004307       0.224331448637403       0.225815141270499     
  0.227298833903595       0.228782526536690       0.230266219169786     
  0.231749911802882       0.233233604435978       0.234717297069073     
  0.236200989702169       0.237684682335265       0.239168374968361     
  0.240652067601457       0.242135760234552       0.243619452867648     
  0.245103145500744       0.246586838133840       0.248070530766936     
  0.249554223400031       0.251037916033127     
  0.121039667039993       0.120177889401748       0.119316111763502     
  0.118454334125257       0.117592556487012       0.116730778848766     
  0.115869001210521       0.115007223572275       0.114145445934030     
  0.113283668295785       0.112421890657539       0.111560113019294     
  0.110698335381049       0.109836557742803       0.108974780104558     
  0.108113002466312       0.107251224828067       0.106389447189822     
  0.105527669551576       0.104665891913331       0.103804114275085     
  0.102942336636840       0.102080558998595       0.101218781360349     
  0.100357003722104       9.949522608385850E-002  0.122463740814342     
  0.121601963176096       0.120740185537851       0.119878407899605     
  0.119016630261360       0.118154852623115       0.117293074984869     
  0.116431297346624       0.115569519708378       0.114707742070133     
  0.113845964431888       0.112984186793642       0.112122409155397     
  0.111260631517151       0.110398853878906       0.109537076240661     
  0.108675298602415       0.107813520964170       0.106951743325925     
  0.106089965687679       0.105228188049434       0.104366410411188     
  0.103504632772943       0.102642855134698       0.101781077496452     
  0.100919299858207       0.126711595840279       0.125849818202034     
  0.124988040563789       0.124126262925543       0.123264485287298     
  0.122402707649053       0.121540930010807       0.120679152372562     
  0.119817374734316       0.118955597096071       0.118093819457825     
  0.117232041819580       0.116370264181335       0.115508486543089     
  0.114646708904844       0.113784931266598       0.112923153628353     
  0.112061375990108       0.111199598351862       0.110337820713617     
  0.109476043075372       0.108614265437126       0.107752487798881     
  0.106890710160635       0.106028932522390       0.105167154884145     
  0.133710550140586       0.132848772502340       0.131986994864095     
  0.131125217225849       0.130263439587604       0.129401661949358     
  0.128539884311113       0.127678106672868       0.126816329034622     
  0.125954551396377       0.125092773758131       0.124230996119886     
  0.123369218481641       0.122507440843395       0.121645663205150     
  0.120783885566905       0.119922107928659       0.119060330290414     
  0.118198552652169       0.117336775013923       0.116474997375678     
  0.115613219737432       0.114751442099187       0.113889664460941     
  0.113027886822696       0.112166109184450       0.143340849666704     
  0.142479072028459       0.141617294390214       0.140755516751968     
  0.139893739113723       0.139031961475477       0.138170183837232     
  0.137308406198987       0.136446628560741       0.135584850922496     
  0.134723073284250       0.133861295646005       0.132999518007760     
  0.132137740369514       0.131275962731269       0.130414185093023     
  0.129552407454778       0.128690629816533       0.127828852178287     
  0.126967074540042       0.126105296901796       0.125243519263551     
  0.124381741625306       0.123519963987060       0.122658186348815     
  0.121796408710570       0.155437717323721       0.154575939685475     
  0.153714162047230       0.152852384408984       0.151990606770739     
  0.151128829132494       0.150267051494248       0.149405273856003     
  0.148543496217758       0.147681718579512       0.146819940941267     
  0.145958163303022       0.145096385664776       0.144234608026531     
  0.143372830388285       0.142511052750040       0.141649275111795     
  0.140787497473549       0.139925719835304       0.139063942197058     
  0.138202164558813       0.137340386920567       0.136478609282322     
  0.135616831644077       0.134755054005831       0.133893276367586     
  0.169794172352138       0.168932394713892       0.168070617075647     
  0.167208839437402       0.166347061799156       0.165485284160911     
  0.164623506522666       0.163761728884420       0.162899951246175     
  0.162038173607929       0.161176395969684       0.160314618331439     
  0.159452840693193       0.158591063054948       0.157729285416703     
  0.156867507778457       0.156005730140212       0.155143952501967     
  0.154282174863721       0.153420397225475       0.152558619587230     
  0.151696841948985       0.150835064310739       0.149973286672494     
  0.149111509034249       0.148249731396003       0.186164571826059     
  0.185302794187813       0.184441016549568       0.183579238911322     
  0.182717461273077       0.181855683634831       0.180993905996586     
  0.180132128358341       0.179270350720096       0.178408573081850     
  0.177546795443605       0.176685017805359       0.175823240167114     
  0.174961462528868       0.174099684890623       0.173237907252378     
  0.172376129614133       0.171514351975887       0.170652574337641     
  0.169790796699396       0.168929019061151       0.168067241422905     
  0.167205463784660       0.166343686146414       0.165481908508169     
  0.164620130869924       0.204268813671751       0.203407036033506     
  0.202545258395260       0.201683480757015       0.200821703118770     
  0.199959925480524       0.199098147842279       0.198236370204033     
  0.197374592565788       0.196512814927543       0.195651037289297     
  0.194789259651052       0.193927482012806       0.193065704374561     
  0.192203926736316       0.191342149098070       0.190480371459825     
  0.189618593821580       0.188756816183334       0.187895038545089     
  0.187033260906843       0.186171483268598       0.185309705630353     
  0.184447927992107       0.183586150353862       0.182724372715616     
  0.223797129291792       0.222935351653547       0.222073574015301     
  0.221211796377056       0.220350018738810       0.219488241100565     
  0.218626463462320       0.217764685824074       0.216902908185829     
  0.216041130547584       0.215179352909338       0.214317575271093     
  0.213455797632847       0.212594019994602       0.211732242356357     
  0.210870464718111       0.210008687079866       0.209146909441620     
  0.208285131803375       0.207423354165130       0.206561576526885     
  0.205699798888639       0.204838021250394       0.203976243612148     
  0.203114465973903       0.202252688335657       0.244415383791651     
  0.243553606153405       0.242691828515160       0.241830050876914     
  0.240968273238669       0.240106495600424       0.239244717962178     
  0.238382940323933       0.237521162685688       0.236659385047442     
  0.235797607409197       0.234935829770951       0.234074052132706     
  0.233212274494461       0.232350496856215       0.231488719217970     
  0.230626941579724       0.229765163941479       0.228903386303234     
  0.228041608664988       0.227179831026742       0.226318053388497     
  0.225456275750252       0.224594498112007       0.223732720473762     
  0.222870942835516       0.265770793120374       0.264909015482128     
  0.264047237843883       0.263185460205638       0.262323682567392     
  0.261461904929147       0.260600127290902       0.259738349652657     
  0.258876572014411       0.258014794376165       0.257153016737920     
  0.256291239099674       0.255429461461429       0.254567683823184     
  0.253705906184939       0.252844128546693       0.251982350908447     
  0.251120573270202       0.250258795631957       0.249397017993712     
  0.248535240355466       0.247673462717220       0.246811685078975     
  0.245949907440729       0.245088129802484       0.244226352164239     
  0.287497960303509       0.286636182665264       0.285774405027019     
  0.284912627388773       0.284050849750528       0.283189072112283     
  0.282327294474037       0.281465516835792       0.280603739197545     
  0.279741961559300       0.278880183921056       0.278018406282810     
  0.277156628644564       0.276294851006320       0.275433073368074     
  0.274571295729828       0.273709518091583       0.272847740453337     
  0.271985962815092       0.271124185176846       0.270262407538601     
  0.269400629900356       0.268538852262111       0.267677074623865     
  0.266815296985619       0.265953519347374       0.309225127486645     
  0.308363349848399       0.307501572210154       0.306639794571908     
  0.305778016933663       0.304916239295418       0.304054461657172     
  0.303192684018927       0.302330906380681       0.301469128742436     
  0.300607351104191       0.299745573465945       0.298883795827700     
  0.298022018189455       0.297160240551209       0.296298462912964     
  0.295436685274719       0.294574907636473       0.293713129998228     
  0.292851352359982       0.291989574721737       0.291127797083491     
  0.290266019445246       0.289404241807001       0.288542464168755     
  0.287680686530510       0.330580536815368       0.329718759177123     
  0.328856981538877       0.327995203900632       0.327133426262387     
  0.326271648624140       0.325409870985895       0.324548093347650     
  0.323686315709405       0.322824538071160       0.321962760432914     
  0.321100982794668       0.320239205156423       0.319377427518178     
  0.318515649879932       0.317653872241687       0.316792094603442     
  0.315930316965196       0.315068539326951       0.314206761688705     
  0.313344984050460       0.312483206412214       0.311621428773969     
  0.310759651135724       0.309897873497478       0.309036095859233     
  0.351198791315226       0.350337013676981       0.349475236038736     
  0.348613458400490       0.347751680762245       0.346889903123999     
  0.346028125485754       0.345166347847509       0.344304570209263     
  0.343442792571018       0.342581014932773       0.341719237294527     
  0.340857459656281       0.339995682018036       0.339133904379790     
  0.338272126741545       0.337410349103300       0.336548571465054     
  0.335686793826809       0.334825016188563       0.333963238550318     
  0.333101460912073       0.332239683273828       0.331377905635582     
  0.330516127997337       0.329654350359092       0.370727106935267     
  0.369865329297022       0.369003551658776       0.368141774020530     
  0.367279996382286       0.366418218744040       0.365556441105794     
  0.364694663467549       0.363832885829304       0.362971108191058     
  0.362109330552813       0.361247552914568       0.360385775276322     
  0.359523997638076       0.358662219999832       0.357800442361586     
  0.356938664723341       0.356076887085095       0.355215109446850     
  0.354353331808605       0.353491554170359       0.352629776532114     
  0.351767998893868       0.350906221255623       0.350044443617377     
  0.349182665979132       0.388831348780960       0.387969571142715     
  0.387107793504469       0.386246015866224       0.385384238227979     
  0.384522460589733       0.383660682951487       0.382798905313242     
  0.381937127674997       0.381075350036751       0.380213572398506     
  0.379351794760260       0.378490017122015       0.377628239483770     
  0.376766461845525       0.375904684207279       0.375042906569034     
  0.374181128930788       0.373319351292543       0.372457573654297     
  0.371595796016052       0.370734018377806       0.369872240739561     
  0.369010463101316       0.368148685463070       0.367286907824825     
  0.405201748254880       0.404339970616635       0.403478192978390     
  0.402616415340144       0.401754637701899       0.400892860063654     
  0.400031082425408       0.399169304787162       0.398307527148917     
  0.397445749510672       0.396583971872427       0.395722194234181     
  0.394860416595936       0.393998638957690       0.393136861319444     
  0.392275083681199       0.391413306042954       0.390551528404709     
  0.389689750766464       0.388827973128218       0.387966195489972     
  0.387104417851727       0.386242640213481       0.385380862575236     
  0.384519084936992       0.383657307298745       0.419558203283298     
  0.418696425645052       0.417834648006807       0.416972870368562     
  0.416111092730316       0.415249315092071       0.414387537453825     
  0.413525759815580       0.412663982177335       0.411802204539089     
  0.410940426900843       0.410078649262598       0.409216871624353     
  0.408355093986108       0.407493316347862       0.406631538709616     
  0.405769761071371       0.404907983433126       0.404046205794881     
  0.403184428156635       0.402322650518390       0.401460872880144     
  0.400599095241899       0.399737317603653       0.398875539965408     
  0.398013762327163       0.431655070940314       0.430793293302069     
  0.429931515663823       0.429069738025578       0.428207960387333     
  0.427346182749087       0.426484405110841       0.425622627472596     
  0.424760849834351       0.423899072196105       0.423037294557861     
  0.422175516919614       0.421313739281370       0.420451961643124     
  0.419590184004879       0.418728406366633       0.417866628728388     
  0.417004851090142       0.416143073451897       0.415281295813652     
  0.414419518175406       0.413557740537161       0.412695962898915     
  0.411834185260670       0.410972407622425       0.410110629984179     
  0.441285370466433       0.440423592828188       0.439561815189942     
  0.438700037551697       0.437838259913452       0.436976482275206     
  0.436114704636961       0.435252926998715       0.434391149360469     
  0.433529371722225       0.432667594083979       0.431805816445734     
  0.430944038807488       0.430082261169243       0.429220483530998     
  0.428358705892752       0.427496928254506       0.426635150616261     
  0.425773372978016       0.424911595339770       0.424049817701525     
  0.423188040063280       0.422326262425034       0.421464484786789     
  0.420602707148543       0.419740929510298       0.448284324766739     
  0.447422547128494       0.446560769490248       0.445698991852003     