 Title = "Wing and Wake"
 VARIABLES = "X" "Y" "Z" "GAM"
 Zone I=   26 J=   25 K=1  T="Blade"
 DATAPACKING=BLOCK
 VARLOCATION=([4]=CELLCENTERED)
 -7.102522122779127E-002 -6.936666687352842E-002 -6.770811251926562E-002
 -6.604955816500283E-002 -6.439100381074009E-002 -6.273244945647721E-002
 -6.107389510221446E-002 -5.941534074795161E-002 -5.775678639368882E-002
 -5.609823203942598E-002 -5.443967768516322E-002 -5.278112333090034E-002
 -5.112256897663762E-002 -4.946401462237472E-002 -4.780546026811201E-002
 -4.614690591384919E-002 -4.448835155958633E-002 -4.282979720532359E-002
 -4.117124285106079E-002 -3.951268849679795E-002 -3.785413414253518E-002
 -3.619557978827232E-002 -3.453702543400958E-002 -3.287847107974674E-002
 -3.121991672548394E-002 -2.956136237122116E-002 -7.144710647226202E-002
 -6.978855211799924E-002 -6.812999776373641E-002 -6.647144340947365E-002
 -6.481288905521079E-002 -6.315433470094803E-002 -6.149578034668515E-002
 -5.983722599242233E-002 -5.817867163815954E-002 -5.652011728389678E-002
 -5.486156292963395E-002 -5.320300857537116E-002 -5.154445422110836E-002
 -4.988589986684555E-002 -4.822734551258274E-002 -4.656879115831996E-002
 -4.491023680405711E-002 -4.325168244979432E-002 -4.159312809553154E-002
 -3.993457374126873E-002 -3.827601938700594E-002 -3.661746503274311E-002
 -3.495891067848036E-002 -3.330035632421752E-002 -3.164180196995464E-002
 -2.998324761569190E-002 -7.270554363217270E-002 -7.104698927790994E-002
 -6.938843492364710E-002 -6.772988056938428E-002 -6.607132621512146E-002
 -6.441277186085863E-002 -6.275421750659589E-002 -6.109566315233306E-002
 -5.943710879807029E-002 -5.777855444380753E-002 -5.612000008954462E-002
 -5.446144573528186E-002 -5.280289138101908E-002 -5.114433702675624E-002
 -4.948578267249345E-002 -4.782722831823061E-002 -4.616867396396785E-002
 -4.451011960970504E-002 -4.285156525544224E-002 -4.119301090117944E-002
 -3.953445654691665E-002 -3.787590219265376E-002 -3.621734783839099E-002
 -3.455879348412822E-002 -3.290023912986539E-002 -3.124168477560261E-002
 -7.477900049881261E-002 -7.312044614454981E-002 -7.146189179028703E-002
 -6.980333743602424E-002 -6.814478308176138E-002 -6.648622872749857E-002
 -6.482767437323574E-002 -6.316912001897297E-002 -6.151056566471011E-002
 -5.985201131044731E-002 -5.819345695618455E-002 -5.653490260192174E-002
 -5.487634824765896E-002 -5.321779389339613E-002 -5.155923953913344E-002
 -4.990068518487050E-002 -4.824213083060773E-002 -4.658357647634497E-002
 -4.492502212208214E-002 -4.326646776781928E-002 -4.160791341355653E-002
 -3.994935905929364E-002 -3.829080470503094E-002 -3.663225035076810E-002
 -3.497369599650528E-002 -3.331514164224247E-002 -7.763199965032257E-002
 -7.597344529605975E-002 -7.431489094179704E-002 -7.265633658753423E-002
 -7.099778223327141E-002 -6.933922787900851E-002 -6.768067352474580E-002
 -6.602211917048299E-002 -6.436356481622012E-002 -6.270501046195737E-002
 -6.104645610769454E-002 -5.938790175343179E-002 -5.772934739916893E-002
 -5.607079304490615E-002 -5.441223869064333E-002 -5.275368433638049E-002
 -5.109512998211776E-002 -4.943657562785494E-002 -4.777802127359212E-002
 -4.611946691932930E-002 -4.446091256506650E-002 -4.280235821080364E-002
 -4.114380385654096E-002 -3.948524950227807E-002 -3.782669514801530E-002
 -3.616814079375246E-002 -8.121572548021955E-002 -7.955717112595677E-002
 -7.789861677169396E-002 -7.624006241743103E-002 -7.458150806316835E-002
 -7.292295370890547E-002 -7.126439935464271E-002 -6.960584500037995E-002
 -6.794729064611715E-002 -6.628873629185433E-002 -6.463018193759151E-002
 -6.297162758332872E-002 -6.131307322906598E-002 -5.965451887480312E-002
 -5.799596452054030E-002 -5.633741016627747E-002 -5.467885581201466E-002
 -5.302030145775184E-002 -5.136174710348902E-002 -4.970319274922627E-002
 -4.804463839496349E-002 -4.638608404070062E-002 -4.472752968643789E-002
 -4.306897533217507E-002 -4.141042097791233E-002 -3.975186662364944E-002
 -8.546885944595749E-002 -8.381030509169464E-002 -8.215175073743176E-002
 -8.049319638316904E-002 -7.883464202890628E-002 -7.717608767464344E-002
 -7.551753332038061E-002 -7.385897896611789E-002 -7.220042461185500E-002
 -7.054187025759223E-002 -6.888331590332936E-002 -6.722476154906663E-002
 -6.556620719480391E-002 -6.390765284054105E-002 -6.224909848627821E-002
 -6.059054413201539E-002 -5.893198977775265E-002 -5.727343542348979E-002
 -5.561488106922694E-002 -5.395632671496417E-002 -5.229777236070131E-002
 -5.063921800643855E-002 -4.898066365217574E-002 -4.732210929791295E-002
 -4.566355494365015E-002 -4.400500058938731E-002 -9.031862924619104E-002
 -8.866007489192815E-002 -8.700152053766554E-002 -8.534296618340252E-002
 -8.368441182913978E-002 -8.202585747487699E-002 -8.036730312061417E-002
 -7.870874876635142E-002 -7.705019441208856E-002 -7.539164005782578E-002
 -7.373308570356306E-002 -7.207453134930014E-002 -7.041597699503738E-002
 -6.875742264077449E-002 -6.709886828651176E-002 -6.544031393224889E-002
 -6.378175957798617E-002 -6.212320522372335E-002 -6.046465086946054E-002
 -5.880609651519774E-002 -5.714754216093495E-002 -5.548898780667207E-002
 -5.383043345240932E-002 -5.217187909814651E-002 -5.051332474388367E-002
 -4.885477038962078E-002 -9.568205397502799E-002 -9.402349962076524E-002
 -9.236494526650228E-002 -9.070639091223962E-002 -8.904783655797675E-002
 -8.738928220371400E-002 -8.573072784945128E-002 -8.407217349518827E-002
 -8.241361914092557E-002 -8.075506478666274E-002 -7.909651043239987E-002
 -7.743795607813708E-002 -7.577940172387429E-002 -7.412084736961150E-002
 -7.246229301534869E-002 -7.080373866108590E-002 -6.914518430682309E-002
 -6.748662995256034E-002 -6.582807559829751E-002 -6.416952124403467E-002
 -6.251096688977191E-002 -6.085241253550908E-002 -5.919385818124627E-002
 -5.753530382698347E-002 -5.587674947272073E-002 -5.421819511845779E-002
 -0.101467363948336      -9.980880959407293E-002 -9.815025523981009E-002
 -9.649170088554726E-002 -9.483314653128443E-002 -9.317459217702181E-002
 -9.151603782275892E-002 -8.985748346849606E-002 -8.819892911423330E-002
 -8.654037475997049E-002 -8.488182040570762E-002 -8.322326605144485E-002
 -8.156471169718205E-002 -7.990615734291920E-002 -7.824760298865642E-002
 -7.658904863439361E-002 -7.493049428013079E-002 -7.327193992586796E-002
 -7.161338557160532E-002 -6.995483121734238E-002 -6.829627686307967E-002
 -6.663772250881679E-002 -6.497916815455400E-002 -6.332061380029125E-002
 -6.166205944602839E-002 -6.000350509176566E-002 -0.107575570908480     
 -0.105917016554217      -0.104258462199954      -0.102599907845692     
 -0.100941353491429      -9.928279913716588E-002 -9.762424478290320E-002
 -9.596569042864028E-002 -9.430713607437742E-002 -9.264858172011466E-002
 -9.099002736585186E-002 -8.933147301158910E-002 -8.767291865732627E-002
 -8.601436430306370E-002 -8.435580994880064E-002 -8.269725559453782E-002
 -8.103870124027518E-002 -7.938014688601226E-002 -7.772159253174951E-002
 -7.606303817748659E-002 -7.440448382322382E-002 -7.274592946896093E-002
 -7.108737511469825E-002 -6.942882076043551E-002 -6.777026640617267E-002
 -6.611171205190984E-002 -0.113902161740858      -0.112243607386595     
 -0.110585053032332      -0.108926498678069      -0.107267944323806     
 -0.105609389969544      -0.103950835615281      -0.102292281261018     
 -0.100633726906755      -9.897517255249254E-002 -9.731661819822957E-002
 -9.565806384396691E-002 -9.399950948970399E-002 -9.234095513544120E-002
 -9.068240078117852E-002 -8.902384642691567E-002 -8.736529207265284E-002
 -8.570673771839007E-002 -8.404818336412731E-002 -8.238962900986452E-002
 -8.073107465560177E-002 -7.907252030133884E-002 -7.741396594707614E-002
 -7.575541159281321E-002 -7.409685723855051E-002 -7.243830288428763E-002
 -0.120338886722265      -0.118680332368002      -0.117021778013739     
 -0.115363223659476      -0.113704669305213      -0.112046114950951     
 -0.110387560596688      -0.108729006242425      -0.107070451888162     
 -0.105411897533899      -0.103753343179637      -0.102094788825374     
 -0.100436234471111      -9.877768011684820E-002 -9.711912576258530E-002
 -9.546057140832256E-002 -9.380201705405988E-002 -9.214346269979701E-002
 -9.048490834553427E-002 -8.882635399127142E-002 -8.716779963700869E-002
 -8.550924528274581E-002 -8.385069092848295E-002 -8.219213657422013E-002
 -8.053358221995734E-002 -7.887502786569466E-002 -0.126775611703672     
 -0.125117057349409      -0.123458502995146      -0.121799948640883     
 -0.120141394286620      -0.118482839932358      -0.116824285578095     
 -0.115165731223832      -0.113507176869569      -0.111848622515306     
 -0.110190068161044      -0.108531513806781      -0.106872959452518     
 -0.105214405098255      -0.103555850743992      -0.101897296389730     
 -0.100238742035467      -9.858018768120401E-002 -9.692163332694115E-002
 -9.526307897267840E-002 -9.360452461841560E-002 -9.194597026415274E-002
 -9.028741590989001E-002 -8.862886155562720E-002 -8.697030720136439E-002
 -8.531175284710157E-002 -0.133102202536049      -0.131443648181787     
 -0.129785093827524      -0.128126539473261      -0.126467985118998     
 -0.124809430764735      -0.123150876410472      -0.121492322056210     
 -0.119833767701947      -0.118175213347684      -0.116516658993421     
 -0.114858104639158      -0.113199550284896      -0.111540995930633     
 -0.109882441576370      -0.108223887222107      -0.106565332867845     
 -0.104906778513582      -0.103248224159319      -0.101589669805056     
 -9.993111545079339E-002 -9.827256109653032E-002 -9.661400674226771E-002
 -9.495545238800493E-002 -9.329689803374215E-002 -9.163834367947943E-002
 -0.139210409496194      -0.137551855141931      -0.135893300787668     
 -0.134234746433405      -0.132576192079142      -0.130917637724880     
 -0.129259083370617      -0.127600529016354      -0.125941974662091     
 -0.124283420307828      -0.122624865953566      -0.120966311599303     
 -0.119307757245040      -0.117649202890777      -0.115990648536514     
 -0.114332094182252      -0.112673539827989      -0.111014985473726     
 -0.109356431119463      -0.107697876765200      -0.106039322410938     
 -0.104380768056675      -0.102722213702412      -0.101063659348149     
 -9.940510499388640E-002 -9.774655063962367E-002 -0.144995719469501     
 -0.143337165115239      -0.141678610760976      -0.140020056406713     
 -0.138361502052450      -0.136702947698187      -0.135044393343925     
 -0.133385838989662      -0.131727284635399      -0.130068730281136     
 -0.128410175926873      -0.126751621572611      -0.125093067218348     
 -0.123434512864085      -0.121775958509822      -0.120117404155559     
 -0.118458849801297      -0.116800295447034      -0.115141741092771     
 -0.113483186738508      -0.111824632384245      -0.110166078029983     
 -0.108507523675720      -0.106848969321457      -0.105190414967194     
 -0.103531860612931      -0.150359144198338      -0.148700589844075     
 -0.147042035489813      -0.145383481135550      -0.143724926781287     
 -0.142066372427024      -0.140407818072762      -0.138749263718499     
 -0.137090709364236      -0.135432155009973      -0.133773600655710     
 -0.132115046301448      -0.130456491947185      -0.128797937592922     
 -0.127139383238659      -0.125480828884396      -0.123822274530133     
 -0.122163720175871      -0.120505165821608      -0.118846611467345     
 -0.117188057113082      -0.115529502758819      -0.113870948404557     
 -0.112212394050294      -0.110553839696031      -0.108895285341768     
 -0.155208913998572      -0.153550359644309      -0.151891805290046     
 -0.150233250935784      -0.148574696581521      -0.146916142227258     
 -0.145257587872995      -0.143599033518732      -0.141940479164469     
 -0.140281924810207      -0.138623370455944      -0.136964816101681     
 -0.135306261747418      -0.133647707393155      -0.131989153038893     
 -0.130330598684630      -0.128672044330367      -0.127013489976104     
 -0.125354935621841      -0.123696381267579      -0.122037826913316     
 -0.120379272559053      -0.118720718204790      -0.117062163850527     
 -0.115403609496265      -0.113745055142002      -0.159462047964310     
 -0.157803493610047      -0.156144939255784      -0.154486384901521     
 -0.152827830547259      -0.151169276192996      -0.149510721838733     
 -0.147852167484470      -0.146193613130208      -0.144535058775945     
 -0.142876504421682      -0.141217950067419      -0.139559395713156     
 -0.137900841358893      -0.136242287004630      -0.134583732650368     
 -0.132925178296105      -0.131266623941842      -0.129608069587579     
 -0.127949515233317      -0.126290960879054      -0.124632406524791     
 -0.122973852170528      -0.121315297816265      -0.119656743462003     
 -0.117998189107740      -0.163045773794207      -0.161387219439944     
 -0.159728665085681      -0.158070110731418      -0.156411556377156     
 -0.154753002022893      -0.153094447668630      -0.151435893314367     
 -0.149777338960104      -0.148118784605841      -0.146460230251579     
 -0.144801675897316      -0.143143121543053      -0.141484567188790     
 -0.139826012834528      -0.138167458480265      -0.136508904126002     
 -0.134850349771739      -0.133191795417476      -0.131533241063213     
 -0.129874686708951      -0.128216132354688      -0.126557578000425     
 -0.124899023646162      -0.123240469291900      -0.121581914937637     
 -0.165898772945717      -0.164240218591454      -0.162581664237191     
 -0.160923109882928      -0.159264555528666      -0.157606001174403     
 -0.155947446820140      -0.154288892465877      -0.152630338111614     
 -0.150971783757352      -0.149313229403089      -0.147654675048826     
 -0.145996120694563      -0.144337566340300      -0.142679011986038     
 -0.141020457631775      -0.139361903277512      -0.137703348923249     
 -0.136044794568986      -0.134386240214724      -0.132727685860461     
 -0.131069131506198      -0.129410577151935      -0.127752022797672     
 -0.126093468443410      -0.124434914089147      -0.167972229812357     
 -0.166313675458094      -0.164655121103831      -0.162996566749568     
 -0.161338012395305      -0.159679458041043      -0.158020903686780     
 -0.156362349332517      -0.154703794978254      -0.153045240623992     
 -0.151386686269729      -0.149728131915466      -0.148069577561203     
 -0.146411023206940      -0.144752468852677      -0.143093914498415     
 -0.141435360144152      -0.139776805789889      -0.138118251435626     
 -0.136459697081363      -0.134801142727101      -0.133142588372838     
 -0.131484034018575      -0.129825479664312      -0.128166925310049     
 -0.126508370955787      -0.169230666972267      -0.167572112618004     
 -0.165913558263742      -0.164255003909479      -0.162596449555216     
 -0.160937895200954      -0.159279340846691      -0.157620786492428     
 -0.155962232138165      -0.154303677783902      -0.152645123429639     
 -0.150986569075377      -0.149328014721114      -0.147669460366851     
 -0.146010906012588      -0.144352351658325      -0.142693797304062     
 -0.141035242949800      -0.139376688595537      -0.137718134241274     
 -0.136059579887011      -0.134401025532749      -0.132742471178485     
 -0.131083916824223      -0.129425362469960      -0.127766808115697     
 -0.169652552216738      -0.167993997862475      -0.166335443508213     
 -0.164676889153950      -0.163018334799687      -0.161359780445424     
 -0.159701226091162      -0.158042671736899      -0.156384117382636     
 -0.154725563028373      -0.153067008674110      -0.151408454319847     
 -0.149749899965585      -0.148091345611322      -0.146432791257059     
 -0.144774236902796      -0.143115682548533      -0.141457128194270     
 -0.139798573840008      -0.138140019485745      -0.136481465131482     
 -0.134822910777219      -0.133164356422957      -0.131505802068694     
 -0.129847247714431      -0.128188693360168     
  0.100146981729572       0.100586529202820       0.101026076676068     
  0.101465624149316       0.101905171622563       0.102344719095811     
  0.102784266569059       0.103223814042306       0.103663361515554     
  0.104102908988802       0.104542456462049       0.104982003935297     
  0.105421551408545       0.105861098881792       0.106300646355040     
  0.106740193828288       0.107179741301535       0.107619288774783     
  0.108058836248031       0.108498383721278       0.108937931194526     
  0.109377478667774       0.109817026141021       0.110256573614269     
  0.110696121087517       0.111135668560765       0.101738890799249     
  0.102178438272496       0.102617985745744       0.103057533218992     
  0.103497080692239       0.103936628165487       0.104376175638735     
  0.104815723111982       0.105255270585230       0.105694818058478     
  0.106134365531725       0.106573913004973       0.107013460478221     
  0.107453007951469       0.107892555424716       0.108332102897964     
  0.108771650371212       0.109211197844459       0.109650745317707     
  0.110090292790955       0.110529840264202       0.110969387737450     
  0.111408935210698       0.111848482683945       0.112288030157193     
  0.112727577630441       0.106487380002734       0.106926927475982     
  0.107366474949230       0.107806022422477       0.108245569895725     
  0.108685117368973       0.109124664842220       0.109564212315468     
  0.110003759788716       0.110443307261963       0.110882854735211     
  0.111322402208459       0.111761949681706       0.112201497154954     
  0.112641044628202       0.113080592101449       0.113520139574697     
  0.113959687047945       0.114399234521192       0.114838781994440     
  0.115278329467688       0.115717876940936       0.116157424414183     
  0.116596971887431       0.117036519360679       0.117476066833926     
  0.114311201373228       0.114750748846476       0.115190296319723     
  0.115629843792971       0.116069391266219       0.116508938739466     
  0.116948486212714       0.117388033685962       0.117827581159209     
  0.118267128632457       0.118706676105705       0.119146223578952     
  0.119585771052200       0.120025318525448       0.120464865998695     
  0.120904413471943       0.121343960945191       0.121783508418438     
  0.122223055891686       0.122662603364934       0.123102150838181     
  0.123541698311429       0.123981245784677       0.124420793257924     
  0.124860340731172       0.125299888204420       0.125076487157907     
  0.125516034631155       0.125955582104402       0.126395129577650     
  0.126834677050898       0.127274224524146       0.127713771997393     
  0.128153319470641       0.128592866943888       0.129032414417136     
  0.129471961890384       0.129911509363632       0.130351056836879     
  0.130790604310127       0.131230151783375       0.131669699256622     
  0.132109246729870       0.132548794203118       0.132988341676365     
  0.133427889149613       0.133867436622861       0.134306984096108     
  0.134746531569356       0.135186079042604       0.135625626515852     
  0.136065173989099       0.138599040332295       0.139038587805543     
  0.139478135278790       0.139917682752038       0.140357230225286     
  0.140796777698533       0.141236325171781       0.141675872645029     
  0.142115420118277       0.142554967591524       0.142994515064772     
  0.143434062538020       0.143873610011267       0.144313157484515     
  0.144752704957763       0.145192252431010       0.145631799904258     
  0.146071347377506       0.146510894850753       0.146950442324001     
  0.147389989797249       0.147829537270496       0.148269084743744     
  0.148708632216992       0.149148179690240       0.149587727163487     
  0.154647486262418       0.155087033735666       0.155526581208913     
  0.155966128682161       0.156405676155409       0.156845223628656     
  0.157284771101904       0.157724318575152       0.158163866048399     
  0.158603413521647       0.159042960994895       0.159482508468143     
  0.159922055941390       0.160361603414638       0.160801150887886     
  0.161240698361133       0.161680245834381       0.162119793307629     
  0.162559340780876       0.162998888254124       0.163438435727372     
  0.163877983200619       0.164317530673867       0.164757078147115     
  0.165196625620362       0.165636173093610       0.172947231588942     
  0.173386779062189       0.173826326535437       0.174265874008685     
  0.174705421481932       0.175144968955180       0.175584516428428     
  0.176024063901676       0.176463611374923       0.176903158848171     
  0.177342706321419       0.177782253794666       0.178221801267914     
  0.178661348741162       0.179100896214409       0.179540443687657     
  0.179979991160905       0.180419538634152       0.180859086107400     
  0.181298633580648       0.181738181053895       0.182177728527143     
  0.182617276000391       0.183056823473638       0.183496370946886     
  0.183935918420134       0.193185162595681       0.193624710068929     
  0.194064257542177       0.194503805015424       0.194943352488672     
  0.195382899961920       0.195822447435168       0.196261994908415     
  0.196701542381663       0.197141089854911       0.197580637328158     
  0.198020184801406       0.198459732274654       0.198899279747901     
  0.199338827221149       0.199778374694397       0.200217922167644     
  0.200657469640892       0.201097017114140       0.201536564587387     
  0.201976112060635       0.202415659533883       0.202855207007131     
  0.203294754480378       0.203734301953626       0.204173849426873     
  0.215015002672097       0.215454550145345       0.215894097618593     
  0.216333645091840       0.216773192565088       0.217212740038336     
  0.217652287511583       0.218091834984831       0.218531382458079     
  0.218970929931326       0.219410477404574       0.219850024877822     
  0.220289572351069       0.220729119824317       0.221168667297565     
  0.221608214770812       0.222047762244060       0.222487309717308     
  0.222926857190555       0.223366404663803       0.223805952137051     
  0.224245499610299       0.224685047083546       0.225124594556794     
  0.225564142030041       0.226003689503289       0.238063237202106     
  0.238502784675354       0.238942332148602       0.239381879621849     
  0.239821427095097       0.240260974568345       0.240700522041593     
  0.241140069514840       0.241579616988088       0.242019164461335     
  0.242458711934583       0.242898259407831       0.243337806881079     
  0.243777354354327       0.244216901827574       0.244656449300822     
  0.245095996774069       0.245535544247317       0.245975091720565     
  0.246414639193813       0.246854186667060       0.247293734140308     
  0.247733281613555       0.248172829086803       0.248612376560051     
  0.249051924033298       0.261935504502723       0.262375051975971     
  0.262814599449218       0.263254146922466       0.263693694395714     
  0.264133241868961       0.264572789342209       0.265012336815457     
  0.265451884288704       0.265891431761952       0.266330979235200     
  0.266770526708447       0.267210074181695       0.267649621654943     
  0.268089169128191       0.268528716601438       0.268968264074686     
  0.269407811547934       0.269847359021181       0.270286906494429     
  0.270726453967677       0.271166001440924       0.271605548914172     
  0.272045096387420       0.272484643860667       0.272924191333915     
  0.286223343461790       0.286662890935038       0.287102438408286     
  0.287541985881533       0.287981533354781       0.288421080828029     
  0.288860628301276       0.289300175774524       0.289739723247772     
  0.290179270721020       0.290618818194267       0.291058365667515     
  0.291497913140763       0.291937460614010       0.292377008087258     
  0.292816555560506       0.293256103033753       0.293695650507001     
  0.294135197980249       0.294574745453496       0.295014292926744     
  0.295453840399992       0.295893387873239       0.296332935346487     
  0.296772482819735       0.297212030292982       0.310511182420858     
  0.310950729894105       0.311390277367353       0.311829824840600     
  0.312269372313848       0.312708919787096       0.313148467260344     
  0.313588014733591       0.314027562206839       0.314467109680087     
  0.314906657153334       0.315346204626582       0.315785752099830     
  0.316225299573078       0.316664847046325       0.317104394519573     
  0.317543941992821       0.317983489466068       0.318423036939316     
  0.318862584412564       0.319302131885811       0.319741679359059     
  0.320181226832307       0.320620774305554       0.321060321778802     
  0.321499869252050       0.334383449721474       0.334822997194722     
  0.335262544667969       0.335702092141217       0.336141639614465     
  0.336581187087713       0.337020734560960       0.337460282034208     
  0.337899829507456       0.338339376980703       0.338778924453951     
  0.339218471927199       0.339658019400447       0.340097566873694     
  0.340537114346942       0.340976661820189       0.341416209293437     
  0.341855756766685       0.342295304239933       0.342734851713180     
  0.343174399186428       0.343613946659675       0.344053494132923     
  0.344493041606171       0.344932589079418       0.345372136552667     
  0.357431684251484       0.357871231724731       0.358310779197979     
  0.358750326671227       0.359189874144474       0.359629421617722     
  0.360068969090970       0.360508516564218       0.360948064037465     
  0.361387611510713       0.361827158983961       0.362266706457208     
  0.362706253930455       0.363145801403703       0.363585348876951     
  0.364024896350199       0.364464443823447       0.364903991296694     
  0.365343538769942       0.365783086243189       0.366222633716437     
  0.366662181189685       0.367101728662933       0.367541276136180     
  0.367980823609428       0.368420371082676       0.379261524327899     
  0.379701071801147       0.380140619274394       0.380580166747642     
  0.381019714220890       0.381459261694137       0.381898809167385     
  0.382338356640633       0.382777904113881       0.383217451587128     
  0.383656999060376       0.384096546533624       0.384536094006871     
  0.384975641480119       0.385415188953367       0.385854736426614     
  0.386294283899862       0.386733831373110       0.387173378846358     
  0.387612926319605       0.388052473792853       0.388492021266101     
  0.388931568739348       0.389371116212596       0.389810663685844     
  0.390250211159091       0.399499455334639       0.399939002807887     
  0.400378550281134       0.400818097754382       0.401257645227630     
  0.401697192700877       0.402136740174125       0.402576287647372     
  0.403015835120621       0.403455382593868       0.403894930067116     
  0.404334477540363       0.404774025013611       0.405213572486859     
  0.405653119960106       0.406092667433354       0.406532214906602     
  0.406971762379850       0.407411309853097       0.407850857326345     
  0.408290404799592       0.408729952272840       0.409169499746088     
  0.409609047219335       0.410048594692583       0.410488142165831     
  0.417799200661163       0.418238748134410       0.418678295607658     
  0.419117843080906       0.419557390554153       0.419996938027401     
  0.420436485500648       0.420876032973896       0.421315580447144     
  0.421755127920392       0.422194675393639       0.422634222866887     
  0.423073770340135       0.423513317813382       0.423952865286630     
  0.424392412759878       0.424831960233126       0.425271507706373     
  0.425711055179621       0.426150602652868       0.426590150126116     
  0.427029697599364       0.427469245072611       0.427908792545859     
  0.428348340019107       0.428787887492355       0.433847646591286     
  0.434287194064533       0.434726741537781       0.435166289011029     
  0.435605836484276       0.436045383957524       0.436484931430771     
  0.436924478904019       0.437364026377267       0.437803573850515     
  0.438243121323762       0.438682668797010       0.439122216270257     
  0.439561763743505       0.440001311216753       0.440440858690001     
  0.440880406163249       0.441319953636496       0.441759501109744     
  0.442199048582992       0.442638596056239       0.443078143529487     
  0.443517691002735       0.443957238475982       0.444396785949230     
  0.444836333422478       0.447370199765673       0.447809747238921     
  0.448249294712169       0.448688842185417       0.449128389658664     
  0.449567937131912       0.450007484605160       0.450447032078407     
  0.450886579551655       0.451326127024902       0.451765674498151     
  0.452205221971398       0.452644769444646       0.453084316917894     
  0.453523864391141       0.453963411864389       0.454402959337636     
  0.454842506810884       0.455282054284132       0.455721601757379     
  0.456161149230627       0.456600696703875       0.457040244177122     
  0.457479791650370       0.457919339123618       0.458358886596866     
  0.458135485550353       0.458575033023601       0.459014580496848     
  0.459454127970096       0.459893675443344       0.460333222916591     
  0.460772770389839       0.461212317863087       0.461651865336334     
  0.462091412809582       0.462530960282830       0.462970507756077     
  0.463410055229325       0.463849602702573       0.464289150175820     
  0.464728697649068       0.465168245122316       0.465607792595563     
  0.466047340068811       0.466486887542059       0.466926435015307     
  0.467365982488554       0.467805529961802       0.468245077435050     
  0.468684624908297       0.469124172381545       0.465959306920847     
  0.466398854394094       0.466838401867342       0.467277949340590     