 Title = "Wing and Wake"
 VARIABLES = "X" "Y" "Z" "GAM"
 Zone I=   26 J=   25 K=1  T="Blade"
 DATAPACKING=BLOCK
 VARLOCATION=([4]=CELLCENTERED)
  5.119804947116422E-002  5.240819491046194E-002  5.361834034975966E-002
  5.482848578905724E-002  5.603863122835490E-002  5.724877666765248E-002
  5.845892210695017E-002  5.966906754624763E-002  6.087921298554526E-002
  6.208935842484311E-002  6.329950386414064E-002  6.450964930343825E-002
  6.571979474273594E-002  6.692994018203351E-002  6.814008562133117E-002
  6.935023106062876E-002  7.056037649992650E-002  7.177052193922430E-002
  7.298066737852164E-002  7.419081281781935E-002  7.540095825711700E-002
  7.661110369641468E-002  7.782124913571205E-002  7.903139457500991E-002
  8.024154001430744E-002  8.145168545360518E-002  5.236554101769485E-002
  5.357568645699255E-002  5.478583189629016E-002  5.599597733558779E-002
  5.720612277488545E-002  5.841626821418297E-002  5.962641365348068E-002
  6.083655909277828E-002  6.204670453207594E-002  6.325684997137351E-002
  6.446699541067116E-002  6.567714084996877E-002  6.688728628926643E-002
  6.809743172856408E-002  6.930757716786164E-002  7.051772260715944E-002
  7.172786804645694E-002  7.293801348575452E-002  7.414815892505233E-002
  7.535830436434984E-002  7.656844980364745E-002  7.777859524294520E-002
  7.898874068224282E-002  8.019888612154043E-002  8.140903156083819E-002
  8.261917700013563E-002  5.584803955323537E-002  5.705818499253288E-002
  5.826833043183065E-002  5.947847587112823E-002  6.068862131042587E-002
  6.189876674972360E-002  6.310891218902119E-002  6.431905762831866E-002
  6.552920306761648E-002  6.673934850691404E-002  6.794949394621141E-002
  6.915963938550930E-002  7.036978482480685E-002  7.157993026410457E-002
  7.279007570340214E-002  7.400022114269968E-002  7.521036658199752E-002
  7.642051202129517E-002  7.763065746059282E-002  7.884080289989040E-002
  8.005094833918801E-002  8.126109377848560E-002  8.247123921778331E-002
  8.368138465708076E-002  8.489153009637834E-002  8.610167553567613E-002
  6.158595856231183E-002  6.279610400160957E-002  6.400624944090721E-002
  6.521639488020471E-002  6.642654031950243E-002  6.763668575880001E-002
  6.884683119809763E-002  7.005697663739530E-002  7.126712207669281E-002
  7.247726751599065E-002  7.368741295528819E-002  7.489755839458587E-002
  7.610770383388341E-002  7.731784927318114E-002  7.852799471247890E-002
  7.973814015177630E-002  8.094828559107403E-002  8.215843103037149E-002
  8.336857646966953E-002  8.457872190896699E-002  8.578886734826445E-002
  8.699901278756210E-002  8.820915822685983E-002  8.941930366615729E-002
  9.062944910545519E-002  9.183959454475266E-002  6.948112065982742E-002
  7.069126609912488E-002  7.190141153842255E-002  7.311155697772018E-002
  7.432170241701788E-002  7.553184785631556E-002  7.674199329561303E-002
  7.795213873491079E-002  7.916228417420809E-002  8.037242961350585E-002
  8.158257505280347E-002  8.279272049210137E-002  8.400286593139866E-002
  8.521301137069648E-002  8.642315680999424E-002  8.763330224929150E-002
  8.884344768858926E-002  9.005359312788699E-002  9.126373856718464E-002
  9.247388400648239E-002  9.368402944577990E-002  9.489417488507740E-002
  9.610432032437510E-002  9.731446576367263E-002  9.852461120297042E-002
  9.973475664226808E-002  7.939843743334057E-002  8.060858287263820E-002
  8.181872831193589E-002  8.302887375123341E-002  8.423901919053102E-002
  8.544916462982867E-002  8.665931006912635E-002  8.786945550842404E-002
  8.907960094772177E-002  9.028974638701930E-002  9.149989182631676E-002
  9.271003726561446E-002  9.392018270491215E-002  9.513032814420966E-002
  9.634047358350746E-002  9.755061902280514E-002  9.876076446210282E-002
  9.997090990140034E-002  0.101181055340698       0.102391200779996     
  0.103601346219293       0.104811491658591       0.106021637097888     
  0.107231782537186       0.108441927976484       0.109652073415781     
  9.116822084325743E-002  9.237836628255496E-002  9.358851172185240E-002
  9.479865716115032E-002  9.600880260044783E-002  9.721894803974560E-002
  9.842909347904345E-002  9.963923891834055E-002  0.100849384357638     
  0.102059529796936       0.103269675236234       0.104479820675532     
  0.105689966114829       0.106900111554127       0.108110256993424     
  0.109320402432722       0.110530547872020       0.111740693311317     
  0.112950838750615       0.114160984189912       0.115371129629210     
  0.116581275068508       0.117791420507805       0.119001565947103     
  0.120211711386401       0.121421856825698       0.104589086632234     
  0.105799232071531       0.107009377510829       0.108219522950127     
  0.109429668389424       0.110639813828722       0.111849959268020     
  0.113060104707317       0.114270250146615       0.115480395585912     
  0.116690541025210       0.117900686464508       0.119110831903805     
  0.120320977343103       0.121531122782401       0.122741268221698     
  0.123951413660996       0.125161559100293       0.126371704539591     
  0.127581849978889       0.128791995418186       0.130002140857484     
  0.131212286296781       0.132422431736079       0.133632577175377     
  0.134842722614675       0.119431400065653       0.120641545504950     
  0.121851690944248       0.123061836383546       0.124271981822843     
  0.125482127262141       0.126692272701439       0.127902418140736     
  0.129112563580034       0.130322709019332       0.131532854458629     
  0.132742999897927       0.133953145337224       0.135163290776522     
  0.136373436215820       0.137583581655117       0.138793727094415     
  0.140003872533713       0.141214017973010       0.142424163412308     
  0.143634308851606       0.144844454290903       0.146054599730201     
  0.147264745169499       0.148474890608796       0.149685036048094     
  0.135441205045603       0.136651350484900       0.137861495924198     
  0.139071641363496       0.140281786802793       0.141491932242091     
  0.142702077681388       0.143912223120686       0.145122368559984     
  0.146332513999282       0.147542659438579       0.148752804877877     
  0.149962950317174       0.151173095756472       0.152383241195769     
  0.153593386635067       0.154803532074365       0.156013677513662     
  0.157223822952960       0.158433968392258       0.159644113831555     
  0.160854259270853       0.162064404710151       0.163274550149448     
  0.164484695588746       0.165694841028043       0.152344569370119     
  0.153554714809417       0.154764860248715       0.155975005688012     
  0.157185151127310       0.158395296566608       0.159605442005905     
  0.160815587445203       0.162025732884501       0.163235878323798     
  0.164446023763096       0.165656169202393       0.166866314641691     
  0.168076460080989       0.169286605520286       0.170496750959584     
  0.171706896398881       0.172917041838179       0.174127187277477     
  0.175337332716775       0.176547478156072       0.177757623595370     
  0.178967769034667       0.180177914473965       0.181388059913263     
  0.182598205352560       0.169852271789113       0.171062417228411     
  0.172272562667708       0.173482708107005       0.174692853546303     
  0.175902998985601       0.177113144424899       0.178323289864197     
  0.179533435303494       0.180743580742792       0.181953726182089     
  0.183163871621387       0.184374017060684       0.185584162499982     
  0.186794307939279       0.188004453378577       0.189214598817875     
  0.190424744257173       0.191634889696470       0.192845035135768     
  0.194055180575066       0.195265326014363       0.196475471453661     
  0.197685616892958       0.198895762332256       0.200105907771554     
  0.187664750660141       0.188874896099439       0.190085041538737     
  0.191295186978034       0.192505332417332       0.193715477856630     
  0.194925623295928       0.196135768735225       0.197345914174522     
  0.198556059613820       0.199766205053118       0.200976350492415     
  0.202186495931713       0.203396641371011       0.204606786810309     
  0.205816932249606       0.207027077688904       0.208237223128201     
  0.209447368567499       0.210657514006796       0.211867659446094     
  0.213077804885392       0.214287950324690       0.215498095763987     
  0.216708241203284       0.217918386642582       0.205477229531171     
  0.206687374970468       0.207897520409765       0.209107665849063     
  0.210317811288361       0.211527956727658       0.212738102166956     
  0.213948247606254       0.215158393045552       0.216368538484849     
  0.217578683924146       0.218788829363444       0.219998974802742     
  0.221209120242040       0.222419265681337       0.223629411120635     
  0.224839556559933       0.226049701999231       0.227259847438528     
  0.228469992877825       0.229680138317123       0.230890283756421     
  0.232100429195719       0.233310574635016       0.234520720074313     
  0.235730865513611       0.222984931950164       0.224195077389462     
  0.225405222828758       0.226615368268057       0.227825513707355     
  0.229035659146652       0.230245804585950       0.231455950025247     
  0.232666095464545       0.233876240903843       0.235086386343140     
  0.236296531782438       0.237506677221735       0.238716822661033     
  0.239926968100330       0.241137113539628       0.242347258978926     
  0.243557404418224       0.244767549857521       0.245977695296818     
  0.247187840736116       0.248397986175414       0.249608131614712     
  0.250818277054009       0.252028422493306       0.253238567932605     
  0.239888296274680       0.241098441713978       0.242308587153276     
  0.243518732592574       0.244728878031871       0.245939023471169     
  0.247149168910466       0.248359314349764       0.249569459789062     
  0.250779605228359       0.251989750667657       0.253199896106955     
  0.254410041546252       0.255620186985549       0.256830332424847     
  0.258040477864145       0.259250623303443       0.260460768742740     
  0.261670914182038       0.262881059621335       0.264091205060633     
  0.265301350499930       0.266511495939229       0.267721641378526     
  0.268931786817824       0.270141932257121       0.255898101254630     
  0.257108246693928       0.258318392133225       0.259528537572522     
  0.260738683011820       0.261948828451118       0.263158973890416     
  0.264369119329714       0.265579264769012       0.266789410208308     
  0.267999555647606       0.269209701086904       0.270419846526202     
  0.271629991965499       0.272840137404797       0.274050282844095     
  0.275260428283393       0.276470573722690       0.277680719161988     
  0.278890864601285       0.280101010040583       0.281311155479881     
  0.282521300919178       0.283731446358476       0.284941591797774     
  0.286151737237071       0.270740414688049       0.271950560127347     
  0.273160705566645       0.274370851005942       0.275580996445240     
  0.276791141884537       0.278001287323835       0.279211432763133     
  0.280421578202431       0.281631723641728       0.282841869081026     
  0.284052014520323       0.285262159959621       0.286472305398919     
  0.287682450838216       0.288892596277514       0.290102741716811     
  0.291312887156109       0.292523032595407       0.293733178034704     
  0.294943323474002       0.296153468913300       0.297363614352597     
  0.298573759791895       0.299783905231192       0.300994050670490     
  0.284161280477025       0.285371425916323       0.286581571355621     
  0.287791716794919       0.289001862234217       0.290212007673514     
  0.291422153112811       0.292632298552109       0.293842443991407     
  0.295052589430704       0.296262734870002       0.297472880309300     
  0.298683025748597       0.299893171187894       0.301103316627193     
  0.302313462066490       0.303523607505788       0.304733752945085     
  0.305943898384384       0.307154043823681       0.308364189262978     
  0.309574334702276       0.310784480141573       0.311994625580871     
  0.313204771020169       0.314414916459466       0.295931063886943     
  0.297141209326240       0.298351354765538       0.299561500204836     
  0.300771645644133       0.301981791083430       0.303191936522728     
  0.304402081962026       0.305612227401324       0.306822372840621     
  0.308032518279919       0.309242663719217       0.310452809158514     
  0.311662954597812       0.312873100037109       0.314083245476406     
  0.315293390915705       0.316503536355003       0.317713681794300     
  0.318923827233598       0.320133972672895       0.321344118112192     
  0.322554263551490       0.323764408990788       0.324974554430086     
  0.326184699869383       0.305848380660456       0.307058526099753     
  0.308268671539051       0.309478816978349       0.310688962417646     
  0.311899107856944       0.313109253296241       0.314319398735539     
  0.315529544174837       0.316739689614135       0.317949835053433     
  0.319159980492730       0.320370125932027       0.321580271371325     
  0.322790416810623       0.324000562249920       0.325210707689218     
  0.326420853128516       0.327630998567813       0.328841144007111     
  0.330051289446409       0.331261434885706       0.332471580325003     
  0.333681725764301       0.334891871203599       0.336102016642897     
  0.313743542757971       0.314953688197269       0.316163833636566     
  0.317373979075864       0.318584124515162       0.319794269954459     
  0.321004415393757       0.322214560833055       0.323424706272352     
  0.324634851711650       0.325844997150947       0.327055142590245     
  0.328265288029543       0.329475433468841       0.330685578908138     
  0.331895724347435       0.333105869786733       0.334316015226031     
  0.335526160665329       0.336736306104626       0.337946451543924     
  0.339156596983221       0.340366742422519       0.341576887861817     
  0.342787033301114       0.343997178740412       0.319481461767048     
  0.320691607206346       0.321901752645643       0.323111898084941     
  0.324322043524238       0.325532188963536       0.326742334402834     
  0.327952479842131       0.329162625281429       0.330372770720727     
  0.331582916160024       0.332793061599322       0.334003207038620     
  0.335213352477917       0.336423497917214       0.337633643356512     
  0.338843788795810       0.340053934235107       0.341264079674405     
  0.342474225113703       0.343684370553000       0.344894515992298     
  0.346104661431595       0.347314806870893       0.348524952310191     
  0.349735097749489       0.322963960302589       0.324174105741886     
  0.325384251181184       0.326594396620481       0.327804542059779     
  0.329014687499076       0.330224832938374       0.331434978377671     
  0.332645123816969       0.333855269256267       0.335065414695564     
  0.336275560134862       0.337485705574160       0.338695851013458     
  0.339905996452755       0.341116141892052       0.342326287331350     
  0.343536432770648       0.344746578209945       0.345956723649242     
  0.347166869088541       0.348377014527838       0.349587159967136     
  0.350797305406434       0.352007450845731       0.353217596285029     
  0.324131451849119       0.325341597288416       0.326551742727715     
  0.327761888167013       0.328972033606309       0.330182179045608     
  0.331392324484905       0.332602469924202       0.333812615363500     
  0.335022760802797       0.336232906242095       0.337443051681392     
  0.338653197120691       0.339863342559988       0.341073487999286     
  0.342283633438583       0.343493778877881       0.344703924317179     
  0.345914069756476       0.347124215195774       0.348334360635072     
  0.349544506074370       0.350754651513667       0.351964796952965     
  0.353174942392261       0.354385087831559     
  0.111591933984263       0.110375565395788       0.109159196807313     
  0.107942828218837       0.106726459630362       0.105510091041886     
  0.104293722453411       0.103077353864936       0.101860985276460     
  0.100644616687985       9.942824809950938E-002  9.821187951103398E-002
  9.699551092255851E-002  9.577914233408294E-002  9.456277374560772E-002
  9.334640515713234E-002  9.213003656865694E-002  9.091366798018145E-002
  8.969729939170593E-002  8.848093080323065E-002  8.726456221475529E-002
  8.604819362627983E-002  8.483182503780429E-002  8.361545644932894E-002
  8.239908786085356E-002  8.118271927237823E-002  0.112753452444900     
  0.111537083856425       0.110320715267949       0.109104346679474     
  0.107887978090998       0.106671609502523       0.105455240914047     
  0.104238872325572       0.103022503737097       0.101806135148621     
  0.100589766560146       9.937339797167039E-002  9.815702938319500E-002
  9.694066079471947E-002  9.572429220624401E-002  9.450792361776873E-002
  9.329155502929326E-002  9.207518644081782E-002  9.085881785234243E-002
  8.964244926386704E-002  8.842608067539168E-002  8.720971208691616E-002
  8.599334349844083E-002  8.477697490996534E-002  8.356060632149002E-002
  8.234423773301447E-002  0.116218133923914       0.115001765335438     
  0.113785396746963       0.112569028158488       0.111352659570012     
  0.110136290981537       0.108919922393061       0.107703553804586     
  0.106487185216110       0.105270816627635       0.104054448039160     
  0.102838079450684       0.101621710862209       0.100405342273733     
  9.918897368525795E-002  9.797260509678243E-002  9.675623650830717E-002
  9.553986791983168E-002  9.432349933135631E-002  9.310713074288088E-002
  9.189076215440545E-002  9.067439356592996E-002  8.945802497745463E-002
  8.824165638897906E-002  8.702528780050371E-002  8.580891921202839E-002
  0.121926696760608       0.120710328172133       0.119493959583657     
  0.118277590995182       0.117061222406706       0.115844853818231     
  0.114628485229756       0.113412116641280       0.112195748052805     
  0.110979379464329       0.109763010875854       0.108546642287379     
  0.107330273698903       0.106113905110428       0.104897536521953     
  0.103681167933477       0.102464799345001       0.101248430756526     
  0.100032062168051       9.881569357957522E-002  9.759932499109970E-002
  9.638295640262431E-002  9.516658781414894E-002  9.395021922567343E-002
  9.273385063719820E-002  9.151748204872272E-002  0.129781465862134     
  0.128565097273659       0.127348728685184       0.126132360096708     
  0.124915991508233       0.123699622919757       0.122483254331282     
  0.121266885742807       0.120050517154331       0.118834148565855     
  0.117617779977380       0.116401411388905       0.115185042800429     
  0.113968674211954       0.112752305623479       0.111535937035003     
  0.110319568446528       0.109103199858052       0.107886831269577     
  0.106670462681102       0.105454094092626       0.104237725504151     
  0.103021356915675       0.101804988327200       0.100588619738724     
  9.937225115024896E-002  0.139648043951412       0.138431675362936     
  0.137215306774461       0.135998938185986       0.134782569597510     
  0.133566201009035       0.132349832420559       0.131133463832084     
  0.129917095243609       0.128700726655133       0.127484358066658     
  0.126267989478182       0.125051620889707       0.123835252301231     
  0.122618883712756       0.121402515124280       0.120186146535805     
  0.118969777947330       0.117753409358854       0.116537040770379     
  0.115320672181904       0.114104303593428       0.112887935004953     
  0.111671566416477       0.110455197828002       0.109238829239526     
  0.151357611141801       0.150141242553325       0.148924873964850     
  0.147708505376375       0.146492136787899       0.145275768199424     
  0.144059399610949       0.142843031022473       0.141626662433998     
  0.140410293845522       0.139193925257047       0.137977556668572     
  0.136761188080096       0.135544819491621       0.134328450903145     
  0.133112082314670       0.131895713726195       0.130679345137719     
  0.129462976549244       0.128246607960768       0.127030239372293     
  0.125813870783817       0.124597502195342       0.123381133606867     
  0.122164765018391       0.120948396429916       0.164709813492169     
  0.163493444903694       0.162277076315218       0.161060707726743     
  0.159844339138267       0.158627970549792       0.157411601961317     
  0.156195233372841       0.154978864784366       0.153762496195891     
  0.152546127607415       0.151329759018940       0.150113390430464     
  0.148897021841989       0.147680653253513       0.146464284665038     
  0.145247916076563       0.144031547488087       0.142815178899612     
  0.141598810311136       0.140382441722661       0.139166073134185     
  0.137949704545710       0.136733335957234       0.135516967368759     
  0.134300598780284       0.179476191118371       0.178259822529896     
  0.177043453941420       0.175827085352945       0.174610716764469     
  0.173394348175994       0.172177979587519       0.170961610999043     
  0.169745242410568       0.168528873822092       0.167312505233617     
  0.166096136645141       0.164879768056666       0.163663399468191     
  0.162447030879715       0.161230662291240       0.160014293702764     
  0.158797925114289       0.157581556525813       0.156365187937338     
  0.155148819348863       0.153932450760387       0.152716082171912     
  0.151499713583436       0.150283344994961       0.149066976406485     
  0.195404087205209       0.194187718616734       0.192971350028258     
  0.191754981439783       0.190538612851307       0.189322244262832     
  0.188105875674357       0.186889507085881       0.185673138497406     
  0.184456769908931       0.183240401320455       0.182024032731980     
  0.180807664143504       0.179591295555029       0.178374926966554     
  0.177158558378078       0.175942189789603       0.174725821201127     
  0.173509452612652       0.172293084024176       0.171076715435701     
  0.169860346847225       0.168643978258750       0.167427609670274     
  0.166211241081799       0.164994872493324       0.212220971034591     
  0.211004602446115       0.209788233857640       0.208571865269164     
  0.207355496680690       0.206139128092214       0.204922759503739     
  0.203706390915263       0.202490022326788       0.201273653738312     
  0.200057285149837       0.198840916561361       0.197624547972886     
  0.196408179384411       0.195191810795935       0.193975442207460     
  0.192759073618984       0.191542705030509       0.190326336442034     
  0.189109967853558       0.187893599265082       0.186677230676607     
  0.185460862088132       0.184244493499657       0.183028124911182     
  0.181811756322706       0.229639101061674       0.228422732473199     
  0.227206363884724       0.225989995296248       0.224773626707773     
  0.223557258119298       0.222340889530822       0.221124520942347     
  0.219908152353872       0.218691783765396       0.217475415176920     
  0.216259046588445       0.215042677999970       0.213826309411495     
  0.212609940823019       0.211393572234543       0.210177203646068     
  0.208960835057593       0.207744466469117       0.206528097880642     
  0.205311729292167       0.204095360703691       0.202878992115215     
  0.201662623526739       0.200446254938265       0.199229886349789     
  0.247360448252479       0.246144079664003       0.244927711075528     
  0.243711342487052       0.242494973898577       0.241278605310102     
  0.240062236721626       0.238845868133151       0.237629499544675     
  0.236413130956200       0.235196762367725       0.233980393779249     
  0.232764025190774       0.231547656602298       0.230331288013823     
  0.229114919425347       0.227898550836872       0.226682182248396     
  0.225465813659921       0.224249445071445       0.223033076482970     
  0.221816707894495       0.220600339306019       0.219383970717544     
  0.218167602129068       0.216951233540593       0.265081795443283     
  0.263865426854807       0.262649058266331       0.261432689677856     
  0.260216321089380       0.258999952500905       0.257783583912429     
  0.256567215323955       0.255350846735479       0.254134478147004     
  0.252918109558528       0.251701740970053       0.250485372381577     
  0.249269003793102       0.248052635204627       0.246836266616151     
  0.245619898027676       0.244403529439200       0.243187160850725     
  0.241970792262249       0.240754423673774       0.239538055085298     
  0.238321686496823       0.237105317908348       0.235888949319872     
  0.234672580731397       0.282499925470366       0.281283556881891     
  0.280067188293415       0.278850819704940       0.277634451116464     
  0.276418082527988       0.275201713939513       0.273985345351038     
  0.272768976762562       0.271552608174087       0.270336239585611     
  0.269119870997136       0.267903502408661       0.266687133820185     
  0.265470765231710       0.264254396643234       0.263038028054759     
  0.261821659466284       0.260605290877808       0.259388922289333     
  0.258172553700858       0.256956185112382       0.255739816523906     
  0.254523447935432       0.253307079346956       0.252090710758480     
  0.299316809299748       0.298100440711272       0.296884072122797     
  0.295667703534321       0.294451334945846       0.293234966357370     
  0.292018597768895       0.290802229180420       0.289585860591944     
  0.288369492003469       0.287153123414994       0.285936754826518     
  0.284720386238043       0.283504017649567       0.282287649061091     
  0.281071280472617       0.279854911884141       0.278638543295665     
  0.277422174707190       0.276205806118714       0.274989437530239     
  0.273773068941764       0.272556700353289       0.271340331764813     
  0.270123963176338       0.268907594587862       0.315244705386586     
  0.314028336798111       0.312811968209635       0.311595599621159     
  0.310379231032684       0.309162862444208       0.307946493855733     
  0.306730125267258       0.305513756678783       0.304297388090307     
  0.303081019501831       0.301864650913356       0.300648282324881     
  0.299431913736405       0.298215545147931       0.296999176559455     
  0.295782807970979       0.294566439382504       0.293350070794028     
  0.292133702205553       0.290917333617078       0.289700965028602     
  0.288484596440127       0.287268227851651       0.286051859263176     
  0.284835490674700       0.330011083012788       0.328794714424313     
  0.327578345835837       0.326361977247362       0.325145608658886     
  0.323929240070411       0.322712871481935       0.321496502893460     
  0.320280134304984       0.319063765716509       0.317847397128034     
  0.316631028539558       0.315414659951083       0.314198291362608     
  0.312981922774132       0.311765554185657       0.310549185597181     
  0.309332817008705       0.308116448420231       0.306900079831755     
  0.305683711243280       0.304467342654804       0.303250974066329     
  0.302034605477853       0.300818236889378       0.299601868300902     
  0.343363285363155       0.342146916774681       0.340930548186205     
  0.339714179597730       0.338497811009254       0.337281442420779     
  0.336065073832303       0.334848705243827       0.333632336655353     
  0.332415968066877       0.331199599478402       0.329983230889926     
  0.328766862301451       0.327550493712975       0.326334125124499     
  0.325117756536025       0.323901387947549       0.322685019359074     
  0.321468650770598       0.320252282182123       0.319035913593648     
  0.317819545005172       0.316603176416696       0.315386807828221     
  0.314170439239747       0.312954070651270       0.355072852553545     
  0.353856483965070       0.352640115376594       0.351423746788119     
  0.350207378199644       0.348991009611168       0.347774641022692     
  0.346558272434217       0.345341903845742       0.344125535257266     
  0.342909166668791       0.341692798080315       0.340476429491840     
  0.339260060903365       0.338043692314889       0.336827323726413     
  0.335610955137938       0.334394586549463       0.333178217960988     
  0.331961849372512       0.330745480784037       0.329529112195561     
  0.328312743607086       0.327096375018611       0.325880006430135     
  0.324663637841660       0.364939430642823       0.363723062054347     
  0.362506693465872       0.361290324877397       0.360073956288921     
  0.358857587700445       0.357641219111970       0.356424850523495     
  0.355208481935020       0.353992113346544       0.352775744758069     
  0.351559376169593       0.350343007581118       0.349126638992642     
  0.347910270404167       0.346693901815692       0.345477533227216     
  0.344261164638740       0.343044796050265       0.341828427461790     
  0.340612058873314       0.339395690284839       0.338179321696363     
  0.336962953107888       0.335746584519412       0.334530215930937     
  0.372794199744348       0.371577831155874       0.370361462567398     
  0.369145093978923       0.367928725390447       0.366712356801971     
  0.365495988213497       0.364279619625021       0.363063251036545     
  0.361846882448071       0.360630513859595       0.359414145271119     
  0.358197776682644       0.356981408094169       0.355765039505693     
  0.354548670917217       0.353332302328742       0.352115933740267     
  0.350899565151792       0.349683196563315       0.348466827974841     
  0.347250459386365       0.346034090797890       0.344817722209414     
  0.343601353620939       0.342384985032463       0.378502762581043     
  0.377286393992568       0.376070025404092       0.374853656815617     