 Title = "Wing and Wake"
 VARIABLES = "X" "Y" "Z" "GAM"
 Zone I=   26 J=   25 K=1  T="Blade"
 DATAPACKING=BLOCK
 VARLOCATION=([4]=CELLCENTERED)
 -1.144114058301723E-002 -9.784998346883291E-003 -8.128856110749325E-003
 -6.472713874615442E-003 -4.816571638481528E-003 -3.160429402347581E-003
 -1.504287166213661E-003  1.518550699201996E-004  1.807997306054169E-003
  3.464139542188150E-003  5.120281778322050E-003  6.776424014455989E-003
  8.432566250589890E-003  1.008870848672390E-002  1.174485072285774E-002
  1.340099295899164E-002  1.505713519512565E-002  1.671327743125956E-002
  1.836941966739343E-002  2.002556190352737E-002  2.168170413966126E-002
  2.333784637579525E-002  2.499398861192913E-002  2.665013084806315E-002
  2.830627308419693E-002  2.996241532033092E-002 -1.101061421738748E-002
 -9.354471981253503E-003 -7.698329745119518E-003 -6.042187508985664E-003
 -4.386045272851690E-003 -2.729903036717782E-003 -1.073760800583794E-003
  5.823814355501037E-004  2.238523671684025E-003  3.894665907817890E-003
  5.550808143951857E-003  7.206950380085769E-003  8.863092616219693E-003
  1.051923485235366E-002  1.217537708848752E-002  1.383151932462148E-002
  1.548766156075543E-002  1.714380379688935E-002  1.879994603302333E-002
  2.045608826915725E-002  2.211223050529106E-002  2.376837274142508E-002
  2.542451497755895E-002  2.708065721369291E-002  2.873679944982689E-002
  3.039294168596071E-002 -9.726401545978473E-003 -8.070259309844584E-003
 -6.414117073710632E-003 -4.757974837576670E-003 -3.101832601442752E-003
 -1.445690365308755E-003  2.104518708250823E-004  1.866594106958991E-003
  3.522736343092961E-003  5.178878579226816E-003  6.835020815360774E-003
  8.491163051494718E-003  1.014730528762860E-002  1.180344752376259E-002
  1.345958975989647E-002  1.511573199603039E-002  1.677187423216438E-002
  1.842801646829833E-002  2.008415870443221E-002  2.174030094056613E-002
  2.339644317670003E-002  2.505258541283407E-002  2.670872764896792E-002
  2.836486988510185E-002  3.002101212123573E-002  3.167715435736968E-002
 -7.610475803649144E-003 -5.954333567515143E-003 -4.298191331381285E-003
 -2.642049095247491E-003 -9.859068591134335E-004  6.702353770205201E-004
  2.326377613154444E-003  3.982519849288348E-003  5.638662085422323E-003
  7.294804321556310E-003  8.950946557690145E-003  1.060708879382413E-002
  1.226323102995792E-002  1.391937326609190E-002  1.557551550222581E-002
  1.723165773835973E-002  1.888779997449369E-002  2.054394221062755E-002
  2.220008444676158E-002  2.385622668289553E-002  2.551236891902931E-002
  2.716851115516332E-002  2.882465339129726E-002  3.048079562743112E-002
  3.213693786356517E-002  3.379308009969899E-002 -4.699041066496105E-003
 -3.042898830362277E-003 -1.386756594228380E-003  2.693856419055450E-004
  1.925527878039511E-003  3.581670114173520E-003  5.237812350307362E-003
  6.893954586441328E-003  8.550096822575192E-003  1.020623905870923E-002
  1.186238129484306E-002  1.351852353097697E-002  1.517466576711092E-002
  1.683080800324481E-002  1.848695023937879E-002  2.014309247551261E-002
  2.179923471164664E-002  2.345537694778055E-002  2.511151918391450E-002
  2.676766142004843E-002  2.842380365618235E-002  3.007994589231629E-002
  3.173608812845020E-002  3.339223036458409E-002  3.504837260071805E-002
  3.670451483685200E-002 -1.041912790074450E-003  6.142294460595169E-004
  2.270371682193380E-003  3.926513918327368E-003  5.582656154461153E-003
  7.238798390595161E-003  8.894940626729088E-003  1.055108286286297E-002
  1.220722509899702E-002  1.386336733513078E-002  1.551950957126477E-002
  1.717565180739865E-002  1.883179404353254E-002  2.048793627966653E-002
  2.214407851580045E-002  2.380022075193456E-002  2.545636298806851E-002
  2.711250522420236E-002  2.876864746033621E-002  3.042478969647013E-002
  3.208093193260403E-002  3.373707416873786E-002  3.539321640487188E-002
  3.704935864100584E-002  3.870550087713977E-002  4.036164311327364E-002
  3.298334546858991E-003  4.954476782992848E-003  6.610619019126711E-003
  8.266761255260725E-003  9.922903491394531E-003  1.157904572752858E-002
  1.323518796366251E-002  1.489133019979618E-002  1.654747243593030E-002
  1.820361467206422E-002  1.985975690819819E-002  2.151589914433203E-002
  2.317204138046599E-002  2.482818361659986E-002  2.648432585273396E-002
  2.814046808886788E-002  2.979661032500164E-002  3.145275256113568E-002
  3.310889479726960E-002  3.476503703340346E-002  3.642117926953742E-002
  3.807732150567130E-002  3.973346374180520E-002  4.138960597793920E-002
  4.304574821407325E-002  4.470189045020711E-002  8.247438109025241E-003
  9.903580345159086E-003  1.155972258129287E-002  1.321586481742702E-002
  1.487200705356089E-002  1.652814928969476E-002  1.818429152582876E-002
  1.984043376196259E-002  2.149657599809662E-002  2.315271823423052E-002
  2.480886047036424E-002  2.646500270649853E-002  2.812114494263218E-002
  2.977728717876631E-002  3.143342941490015E-002  3.308957165103400E-002
  3.474571388716800E-002  3.640185612330191E-002  3.805799835943585E-002
  3.971414059556980E-002  4.137028283170372E-002  4.302642506783763E-002
  4.468256730397141E-002  4.633870954010546E-002  4.799485177623936E-002
  4.965099401237340E-002  1.372071736232478E-002  1.537685959845862E-002
  1.703300183459268E-002  1.868914407072662E-002  2.034528630686049E-002
  2.200142854299445E-002  2.365757077912828E-002  2.531371301526229E-002
  2.696985525139610E-002  2.862599748753019E-002  3.028213972366405E-002
  3.193828195979800E-002  3.359442419593180E-002  3.525056643206578E-002
  3.690670866819976E-002  3.856285090433366E-002  4.021899314046760E-002
  4.187513537660152E-002  4.353127761273553E-002  4.518741984886945E-002
  4.684356208500329E-002  4.849970432113729E-002  5.015584655727125E-002
  5.181198879340519E-002  5.346813102953912E-002  5.512427326567303E-002
  1.962452298125433E-002  2.128066521738811E-002  2.293680745352221E-002
  2.459294968965609E-002  2.624909192578990E-002  2.790523416192383E-002
  2.956137639805772E-002  3.121751863419176E-002  3.287366087032573E-002
  3.452980310645966E-002  3.618594534259353E-002  3.784208757872743E-002
  3.949822981486135E-002  4.115437205099538E-002  4.281051428712925E-002
  4.446665652326323E-002  4.612279875939710E-002  4.777894099553108E-002
  4.943508323166483E-002  5.109122546779886E-002  5.274736770393277E-002
  5.440350994006676E-002  5.605965217620072E-002  5.771579441233446E-002
  5.937193664846841E-002  6.102807888460225E-002  2.585783921482941E-002
  2.751398145096342E-002  2.917012368709722E-002  3.082626592323110E-002
  3.248240815936526E-002  3.413855039549902E-002  3.579469263163289E-002
  3.745083486776701E-002  3.910697710390097E-002  4.076311934003480E-002
  4.241926157616871E-002  4.407540381230248E-002  4.573154604843663E-002
  4.738768828457039E-002  4.904383052070452E-002  5.069997275683844E-002
  5.235611499297214E-002  5.401225722910619E-002  5.566839946524003E-002
  5.732454170137408E-002  5.898068393750788E-002  6.063682617364192E-002
  6.229296840977591E-002  6.394911064590962E-002  6.560525288204372E-002
  6.726139511817757E-002  3.231401229409227E-002  3.397015453022611E-002
  3.562629676636005E-002  3.728243900249391E-002  3.893858123862812E-002
  4.059472347476169E-002  4.225086571089582E-002  4.390700794702955E-002
  4.556315018316349E-002  4.721929241929748E-002  4.887543465543145E-002
  5.053157689156544E-002  5.218771912769934E-002  5.384386136383324E-002
  5.550000359996706E-002  5.715614583610110E-002  5.881228807223483E-002
  6.046843030836888E-002  6.212457254450277E-002  6.378071478063657E-002
  6.543685701677072E-002  6.709299925290475E-002  6.874914148903863E-002
  7.040528372517248E-002  7.206142596130621E-002  7.371756819744035E-002
  3.888257530766683E-002  4.053871754380058E-002  4.219485977993472E-002
  4.385100201606862E-002  4.550714425220249E-002  4.716328648833642E-002
  4.881942872447038E-002  5.047557096060434E-002  5.213171319673810E-002
  5.378785543287215E-002  5.544399766900614E-002  5.710013990514014E-002
  5.875628214127387E-002  6.041242437740783E-002  6.206856661354188E-002
  6.372470884967590E-002  6.538085108580972E-002  6.703699332194359E-002
  6.869313555807739E-002  7.034927779421131E-002  7.200542003034527E-002
  7.366156226647914E-002  7.531770450261323E-002  7.697384673874724E-002
  7.862998897488128E-002  8.028613121101498E-002  4.545113832124152E-002
  4.710728055737524E-002  4.876342279350940E-002  5.041956502964320E-002
  5.207570726577721E-002  5.373184950191114E-002  5.538799173804507E-002
  5.704413397417898E-002  5.870027621031309E-002  6.035641844644705E-002
  6.201256068258065E-002  6.366870291871474E-002  6.532484515484849E-002
  6.698098739098260E-002  6.863712962711653E-002  7.029327186325061E-002
  7.194941409938456E-002  7.360555633551824E-002  7.526169857165241E-002
  7.691784080778608E-002  7.857398304391988E-002  8.023012528005401E-002
  8.188626751618808E-002  8.354240975232159E-002  8.519855198845568E-002
  8.685469422458955E-002  5.190731140050438E-002  5.356345363663829E-002
  5.521959587277200E-002  5.687573810890613E-002  5.853188034504028E-002
  6.018802258117401E-002  6.184416481730801E-002  6.350030705344185E-002
  6.515644928957585E-002  6.681259152570986E-002  6.846873376184365E-002
  7.012487599797756E-002  7.178101823411119E-002  7.343716047024532E-002
  7.509330270637925E-002  7.674944494251316E-002  7.840558717864689E-002
  8.006172941478117E-002  8.171787165091474E-002  8.337401388704888E-002
  8.503015612318270E-002  8.668629835931702E-002  8.834244059545091E-002
  8.999858283158477E-002  9.165472506771831E-002  9.331086730385239E-002
  5.814062763407961E-002  5.979676987021341E-002  6.145291210634741E-002
  6.310905434248125E-002  6.476519657861529E-002  6.642133881474911E-002
  6.807748105088324E-002  6.973362328701697E-002  7.138976552315081E-002
  7.304590775928504E-002  7.470204999541889E-002  7.635819223155275E-002
  7.801433446768641E-002  7.967047670382033E-002  8.132661893995459E-002
  8.298276117608838E-002  8.463890341222256E-002  8.629504564835601E-002
  8.795118788449011E-002  8.960733012062400E-002  9.126347235675773E-002
  9.291961459289161E-002  9.457575682902603E-002  9.623189906515955E-002
  9.788804130129375E-002  9.954418353742782E-002  6.404443325300890E-002
  6.570057548914281E-002  6.735671772527653E-002  6.901285996141049E-002
  7.066900219754442E-002  7.232514443367863E-002  7.398128666981250E-002
  7.563742890594630E-002  7.729357114208033E-002  7.894971337821412E-002
  8.060585561434805E-002  8.226199785048201E-002  8.391814008661606E-002
  8.557428232275009E-002  8.723042455888393E-002  8.888656679501764E-002
  9.054270903115159E-002  9.219885126728572E-002  9.385499350341962E-002
  9.551113573955339E-002  9.716727797568740E-002  9.882342021182149E-002
  0.100479562447955       0.102135704684089       0.103791846920223     
  0.105447989156357       6.951771250630846E-002  7.117385474244255E-002
  7.282999697857631E-002  7.448613921471023E-002  7.614228145084442E-002
  7.779842368697813E-002  7.945456592311209E-002  8.111070815924581E-002
  8.276685039537990E-002  8.442299263151395E-002  8.607913486764762E-002
  8.773527710378194E-002  8.939141933991572E-002  9.104756157604960E-002
  9.270370381218332E-002  9.435984604831736E-002  9.601598828445139E-002
  9.767213052058535E-002  9.932827275671928E-002  0.100984414992853     
  0.102640557228987       0.104296699465121       0.105952841701255     
  0.107608983937389       0.109265126173523       0.110921268409656     
  7.446681606847461E-002  7.612295830460862E-002  7.777910054074265E-002
  7.943524277687672E-002  8.109138501301061E-002  8.274752724914448E-002
  8.440366948527822E-002  8.605981172141224E-002  8.771595395754636E-002
  8.937209619368007E-002  9.102823842981421E-002  9.268438066594824E-002
  9.434052290208181E-002  9.599666513821568E-002  9.765280737434986E-002
  9.930894961048418E-002  0.100965091846618       0.102621234082752     
  0.104277376318886       0.105933518555019       0.107589660791153     
  0.109245803027287       0.110901945263421       0.112558087499555     
  0.114214229735689       0.115870371971823       7.880706340540838E-002
  8.046320564154205E-002  8.211934787767589E-002  8.377549011381007E-002
  8.543163234994380E-002  8.708777458607803E-002  8.874391682221175E-002
  9.040005905834557E-002  9.205620129447960E-002  9.371234353061361E-002
  9.536848576674740E-002  9.702462800288111E-002  9.868077023901506E-002
  0.100336912475149       0.101993054711283       0.103649196947417     
  0.105305339183551       0.106961481419685       0.108617623655819     
  0.110273765891953       0.111929908128087       0.113586050364220     
  0.115242192600355       0.116898334836488       0.118554477072622     
  0.120210619308756       8.246419168183003E-002  8.412033391796354E-002
  8.577647615409791E-002  8.743261839023173E-002  8.908876062636550E-002
  9.074490286249960E-002  9.240104509863344E-002  9.405718733476721E-002
  9.571332957090138E-002  9.736947180703530E-002  9.902561404316923E-002
  0.100681756279303       0.102337898515437       0.103994040751571     
  0.105650182987705       0.107306325223839       0.108962467459973     
  0.110618609696107       0.112274751932241       0.113930894168374     
  0.115587036404509       0.117243178640642       0.118899320876776     
  0.120555463112910       0.122211605349044       0.123867747585178     
  8.537562641898275E-002  8.703176865511655E-002  8.868791089125067E-002
  9.034405312738476E-002  9.200019536351850E-002  9.365633759965232E-002
  9.531247983578661E-002  9.696862207192070E-002  9.862476430805432E-002
  0.100280906544188       0.101937048780322       0.103593191016456     
  0.105249333252590       0.106905475488724       0.108561617724858     
  0.110217759960991       0.111873902197125       0.113530044433259     
  0.115186186669393       0.116842328905527       0.118498471141662     
  0.120154613377795       0.121810755613929       0.123466897850063     
  0.125123040086197       0.126779182322331       8.749155216131248E-002
  8.914769439744602E-002  9.080383663358002E-002  9.245997886971381E-002
  9.411612110584761E-002  9.577226334198183E-002  9.742840557811587E-002
  9.908454781424950E-002  0.100740690050383       0.102396832286518     
  0.104052974522652       0.105709116758786       0.107365258994919     
  0.109021401231053       0.110677543467187       0.112333685703321     
  0.113989827939455       0.115645970175589       0.117302112411723     
  0.118958254647857       0.120614396883991       0.122270539120124     
  0.123926681356258       0.125582823592392       0.127238965828526     
  0.128895108064660       8.877576483272138E-002  9.043190706885527E-002
  9.208804930498929E-002  9.374419154112304E-002  9.540033377725675E-002
  9.705647601339082E-002  9.871261824952451E-002  0.100368760485659     
  0.102024902721793       0.103681044957926       0.105337187194060     
  0.106993329430194       0.108649471666329       0.110305613902462     
  0.111961756138596       0.113617898374730       0.115274040610864     
  0.116930182846998       0.118586325083132       0.120242467319265     
  0.121898609555400       0.123554751791534       0.125210894027668     
  0.126867036263802       0.128523178499935       0.130179320736069     
  8.920629119835077E-002  9.086243343448477E-002  9.251857567061914E-002
  9.417471790675276E-002  9.583086014288647E-002  9.748700237902069E-002
  9.914314461515415E-002  0.100799286851289       0.102455429087422     
  0.104111571323556       0.105767713559690       0.107423855795824     
  0.109079998031958       0.110736140268092       0.112392282504226     
  0.114048424740360       0.115704566976494       0.117360709212628     
  0.119016851448762       0.120672993684896       0.122329135921029     
  0.123985278157163       0.125641420393297       0.127297562629431     
  0.128953704865565       0.130609847101699     
  0.122241974387522       0.121793424032516       0.121344873677510     
  0.120896323322505       0.120447772967499       0.119999222612493     
  0.119550672257487       0.119102121902481       0.118653571547476     
  0.118205021192470       0.117756470837464       0.117307920482458     
  0.116859370127452       0.116410819772446       0.115962269417441     
  0.115513719062435       0.115065168707429       0.114616618352423     
  0.114168067997417       0.113719517642412       0.113270967287406     
  0.112822416932400       0.112373866577394       0.111925316222388     
  0.111476765867382       0.111028215512377       0.123831568264623     
  0.123383017909617       0.122934467554612       0.122485917199606     
  0.122037366844600       0.121588816489594       0.121140266134588     
  0.120691715779582       0.120243165424577       0.119794615069571     
  0.119346064714565       0.118897514359559       0.118448964004553     
  0.118000413649548       0.117551863294542       0.117103312939536     
  0.116654762584530       0.116206212229524       0.115757661874518     
  0.115309111519513       0.114860561164507       0.114412010809501     
  0.113963460454495       0.113514910099489       0.113066359744483     
  0.112617809389478       0.128573151503970       0.128124601148964     
  0.127676050793959       0.127227500438953       0.126778950083947     
  0.126330399728941       0.125881849373935       0.125433299018929     
  0.124984748663924       0.124536198308918       0.124087647953912     
  0.123639097598906       0.123190547243900       0.122741996888894     
  0.122293446533889       0.121844896178883       0.121396345823877     
  0.120947795468871       0.120499245113865       0.120050694758860     
  0.119602144403854       0.119153594048848       0.118705043693842     
  0.118256493338836       0.117807942983830       0.117359392628825     
  0.136385594301723       0.135937043946717       0.135488493591711     
  0.135039943236705       0.134591392881699       0.134142842526694     
  0.133694292171688       0.133245741816682       0.132797191461676     
  0.132348641106670       0.131900090751664       0.131451540396659     
  0.131002990041653       0.130554439686647       0.130105889331641     
  0.129657338976635       0.129208788621630       0.128760238266624     
  0.128311687911618       0.127863137556612       0.127414587201606     
  0.126966036846601       0.126517486491595       0.126068936136589     
  0.125620385781583       0.125171835426577       0.147135223595593     
  0.146686673240587       0.146238122885581       0.145789572530576     
  0.145341022175570       0.144892471820564       0.144443921465558     
  0.143995371110552       0.143546820755546       0.143098270400541     
  0.142649720045535       0.142201169690529       0.141752619335523     
  0.141304068980517       0.140855518625512       0.140406968270506     
  0.139958417915500       0.139509867560494       0.139061317205488     
  0.138612766850482       0.138164216495476       0.137715666140471     
  0.137267115785465       0.136818565430459       0.136370015075453     
  0.135921464720447       0.160638110248002       0.160189559892997     
  0.159741009537991       0.159292459182985       0.158843908827979     
  0.158395358472973       0.157946808117967       0.157498257762962     
  0.157049707407956       0.156601157052950       0.156152606697944     
  0.155704056342938       0.155255505987933       0.154806955632927     
  0.154358405277921       0.153909854922915       0.153461304567910     
  0.153012754212904       0.152564203857898       0.152115653502892     
  0.151667103147886       0.151218552792880       0.150770002437875     
  0.150321452082868       0.149872901727863       0.149424351372857     
  0.176663216124621       0.176214665769615       0.175766115414609     
  0.175317565059604       0.174869014704598       0.174420464349592     
  0.173971913994586       0.173523363639580       0.173074813284574     
  0.172626262929569       0.172177712574563       0.171729162219557     
  0.171280611864551       0.170832061509545       0.170383511154540     
  0.169934960799534       0.169486410444528       0.169037860089522     
  0.168589309734516       0.168140759379510       0.167692209024505     
  0.167243658669499       0.166795108314493       0.166346557959487     
  0.165898007604481       0.165449457249476       0.194936347220901     
  0.194487796865895       0.194039246510890       0.193590696155884     
  0.193142145800878       0.192693595445872       0.192245045090866     
  0.191796494735860       0.191347944380855       0.190899394025849     
  0.190450843670843       0.190002293315837       0.189553742960831     
  0.189105192605826       0.188656642250820       0.188208091895814     
  0.187759541540808       0.187310991185802       0.186862440830796     
  0.186413890475791       0.185965340120785       0.185516789765779     
  0.185068239410773       0.184619689055767       0.184171138700761     
  0.183722588345755       0.215144845197516       0.214696294842510     
  0.214247744487504       0.213799194132499       0.213350643777493     
  0.212902093422487       0.212453543067482       0.212004992712475     
  0.211556442357469       0.211107892002464       0.210659341647458     
  0.210210791292452       0.209762240937446       0.209313690582440     
  0.208865140227434       0.208416589872429       0.207968039517423     
  0.207519489162417       0.207070938807411       0.206622388452406     
  0.206173838097400       0.205725287742394       0.205276737387388     
  0.204828187032382       0.204379636677377       0.203931086322371     
  0.236942937051232       0.236494386696226       0.236045836341221     
  0.235597285986215       0.235148735631209       0.234700185276203     
  0.234251634921197       0.233803084566191       0.233354534211185     
  0.232905983856180       0.232457433501174       0.232008883146168     
  0.231560332791162       0.231111782436156       0.230663232081151     
  0.230214681726145       0.229766131371139       0.229317581016133     
  0.228869030661127       0.228420480306121       0.227971929951116     
  0.227523379596110       0.227074829241104       0.226626278886098     
  0.226177728531092       0.225729178176087       0.259957651386859     
  0.259509101031853       0.259060550676847       0.258612000321841     
  0.258163449966836       0.257714899611830       0.257266349256824     
  0.256817798901819       0.256369248546813       0.255920698191807     
  0.255472147836801       0.255023597481795       0.254575047126789     
  0.254126496771784       0.253677946416778       0.253229396061772     
  0.252780845706766       0.252332295351760       0.251883744996754     
  0.251435194641749       0.250986644286743       0.250538093931737     
  0.250089543576731       0.249640993221725       0.249192442866720     
  0.248743892511713       0.283795200061230       0.283346649706225     
  0.282898099351219       0.282449548996213       0.282000998641207     
  0.281552448286202       0.281103897931196       0.280655347576190     
  0.280206797221184       0.279758246866178       0.279309696511172     
  0.278861146156166       0.278412595801160       0.277964045446155     
  0.277515495091149       0.277066944736143       0.276618394381137     
  0.276169844026132       0.275721293671126       0.275272743316120     
  0.274824192961114       0.274375642606108       0.273927092251102     
  0.273478541896096       0.273029991541090       0.272581441186085     
  0.308047716007510       0.307599165652504       0.307150615297499     
  0.306702064942492       0.306253514587487       0.305804964232481     
  0.305356413877475       0.304907863522470       0.304459313167463     
  0.304010762812458       0.303562212457452       0.303113662102446     
  0.302665111747440       0.302216561392434       0.301768011037429     
  0.301319460682423       0.300870910327417       0.300422359972411     
  0.299973809617405       0.299525259262399       0.299076708907394     
  0.298628158552388       0.298179608197382       0.297731057842376     
  0.297282507487370       0.296833957132364       0.332300231953790     
  0.331851681598784       0.331403131243778       0.330954580888772     
  0.330506030533767       0.330057480178761       0.329608929823755     
  0.329160379468749       0.328711829113743       0.328263278758738     
  0.327814728403731       0.327366178048726       0.326917627693720     
  0.326469077338714       0.326020526983708       0.325571976628703     
  0.325123426273697       0.324674875918691       0.324226325563685     
  0.323777775208679       0.323329224853673       0.322880674498667     
  0.322432124143662       0.321983573788656       0.321535023433650     
  0.321086473078644       0.356137780628161       0.355689230273155     
  0.355240679918149       0.354792129563144       0.354343579208138     
  0.353895028853132       0.353446478498126       0.352997928143120     
  0.352549377788115       0.352100827433109       0.351652277078103     
  0.351203726723097       0.350755176368092       0.350306626013085     
  0.349858075658079       0.349409525303074       0.348960974948068     
  0.348512424593062       0.348063874238056       0.347615323883051     
  0.347166773528045       0.346718223173039       0.346269672818033     
  0.345821122463027       0.345372572108021       0.344924021753016     
  0.379152494963788       0.378703944608782       0.378255394253777     
  0.377806843898771       0.377358293543765       0.376909743188759     
  0.376461192833753       0.376012642478747       0.375564092123741     
  0.375115541768736       0.374666991413730       0.374218441058724     
  0.373769890703718       0.373321340348712       0.372872789993706     
  0.372424239638701       0.371975689283695       0.371527138928689     
  0.371078588573683       0.370630038218677       0.370181487863671     
  0.369732937508666       0.369284387153660       0.368835836798654     
  0.368387286443649       0.367938736088643       0.400950586817504     
  0.400502036462498       0.400053486107492       0.399604935752486     
  0.399156385397481       0.398707835042475       0.398259284687469     
  0.397810734332463       0.397362183977458       0.396913633622451     
  0.396465083267446       0.396016532912440       0.395567982557434     
  0.395119432202428       0.394670881847423       0.394222331492416     
  0.393773781137411       0.393325230782405       0.392876680427399     
  0.392428130072393       0.391979579717387       0.391531029362382     
  0.391082479007376       0.390633928652370       0.390185378297364     
  0.389736827942358       0.421159084794119       0.420710534439113     
  0.420261984084107       0.419813433729102       0.419364883374096     
  0.418916333019090       0.418467782664084       0.418019232309078     
  0.417570681954073       0.417122131599066       0.416673581244061     
  0.416225030889055       0.415776480534049       0.415327930179043     
  0.414879379824037       0.414430829469032       0.413982279114026     
  0.413533728759020       0.413085178404014       0.412636628049008     
  0.412188077694003       0.411739527338996       0.411290976983991     
  0.410842426628985       0.410393876273979       0.409945325918974     
  0.439432215890399       0.438983665535393       0.438535115180387     
  0.438086564825382       0.437638014470376       0.437189464115370     
  0.436740913760364       0.436292363405358       0.435843813050353     
  0.435395262695347       0.434946712340341       0.434498161985335     
  0.434049611630329       0.433601061275323       0.433152510920317     
  0.432703960565312       0.432255410210306       0.431806859855300     
  0.431358309500294       0.430909759145288       0.430461208790283     
  0.430012658435277       0.429564108080271       0.429115557725265     
  0.428667007370260       0.428218457015254       0.455457321767018     
  0.455008771412012       0.454560221057006       0.454111670702000     
  0.453663120346994       0.453214569991989       0.452766019636982     
  0.452317469281977       0.451868918926971       0.451420368571965     
  0.450971818216959       0.450523267861954       0.450074717506948     
  0.449626167151942       0.449177616796936       0.448729066441930     
  0.448280516086925       0.447831965731919       0.447383415376913     
  0.446934865021907       0.446486314666901       0.446037764311895     
  0.445589213956890       0.445140663601883       0.444692113246878     
  0.444243562891872       0.468960208419427       0.468511658064421     
  0.468063107709416       0.467614557354410       0.467166006999404     
  0.466717456644398       0.466268906289392       0.465820355934387     
  0.465371805579381       0.464923255224374       0.464474704869370     
  0.464026154514363       0.463577604159358       0.463129053804352     
  0.462680503449346       0.462231953094340       0.461783402739334     
  0.461334852384328       0.460886302029322       0.460437751674317     
  0.459989201319311       0.459540650964305       0.459092100609299     
  0.458643550254293       0.458194999899288       0.457746449544282     
  0.479709837713297       0.479261287358292       0.478812737003286     
  0.478364186648280       0.477915636293274       0.477467085938269     
  0.477018535583262       0.476569985228257       0.476121434873251     
  0.475672884518245       0.475224334163240       0.474775783808233     
  0.474327233453227       0.473878683098222       0.473430132743216     
  0.472981582388210       0.472533032033204       0.472084481678198     
  0.471635931323193       0.471187380968187       0.470738830613181     
  0.470290280258175       0.469841729903169       0.469393179548163     
  0.468944629193158       0.468496078838152       0.487522280511050     
  0.487073730156044       0.486625179801039       0.486176629446033     