 Title = "Wing and Wake"
 VARIABLES = "X" "Y" "Z" "GAM"
 Zone I=   26 J=   25 K=1  T="Blade"
 DATAPACKING=BLOCK
 VARLOCATION=([4]=CELLCENTERED)
 -7.114816477653972E-002 -6.949015151040422E-002 -6.783213824426874E-002
 -6.617412497813326E-002 -6.451611171199785E-002 -6.285809844586228E-002
 -6.120008517972687E-002 -5.954207191359137E-002 -5.788405864745591E-002
 -5.622604538132039E-002 -5.456803211518496E-002 -5.291001884904941E-002
 -5.125200558291404E-002 -4.959399231677847E-002 -4.793597905064303E-002
 -4.627796578450757E-002 -4.461995251837205E-002 -4.296193925223664E-002
 -4.130392598610115E-002 -3.964591271996564E-002 -3.798789945383018E-002
 -3.632988618769468E-002 -3.467187292155923E-002 -3.301385965542376E-002
 -3.135584638928828E-002 -2.969783312315281E-002 -7.157200483138465E-002
 -6.991399156524920E-002 -6.825597829911373E-002 -6.659796503297830E-002
 -6.493995176684274E-002 -6.328193850070732E-002 -6.162392523457181E-002
 -5.996591196843630E-002 -5.830789870230084E-002 -5.664988543616540E-002
 -5.499187217002989E-002 -5.333385890389443E-002 -5.167584563775895E-002
 -5.001783237162347E-002 -4.835981910548798E-002 -4.670180583935254E-002
 -4.504379257321700E-002 -4.338577930708156E-002 -4.172776604094611E-002
 -4.006975277481061E-002 -3.841173950867516E-002 -3.675372624253967E-002
 -3.509571297640423E-002 -3.343769971026873E-002 -3.177968644413320E-002
 -3.012167317799778E-002 -7.283627297507048E-002 -7.117825970893503E-002
 -6.952024644279951E-002 -6.786223317666402E-002 -6.620421991052856E-002
 -6.454620664439306E-002 -6.288819337825763E-002 -6.123018011212213E-002
 -5.957216684598666E-002 -5.791415357985122E-002 -5.625614031371570E-002
 -5.459812704758023E-002 -5.294011378144479E-002 -5.128210051530931E-002
 -4.962408724917381E-002 -4.796607398303832E-002 -4.630806071690288E-002
 -4.465004745076739E-002 -4.299203418463192E-002 -4.133402091849645E-002
 -3.967600765236099E-002 -3.801799438622545E-002 -3.635998112008998E-002
 -3.470196785395453E-002 -3.304395458781906E-002 -3.138594132168359E-002
 -7.491933722913736E-002 -7.326132396300188E-002 -7.160331069686643E-002
 -6.994529743073095E-002 -6.828728416459544E-002 -6.662927089845999E-002
 -6.497125763232446E-002 -6.331324436618900E-002 -6.165523110005350E-002
 -5.999721783391805E-002 -5.833920456778260E-002 -5.668119130164712E-002
 -5.502317803551164E-002 -5.336516476937616E-002 -5.170715150324076E-002
 -5.004913823710518E-002 -4.839112497096974E-002 -4.673311170483426E-002
 -4.507509843869882E-002 -4.341708517256329E-002 -4.175907190642787E-002
 -4.010105864029233E-002 -3.844304537415692E-002 -3.678503210802142E-002
 -3.512701884188592E-002 -3.346900557575046E-002 -7.778555578666362E-002
 -7.612754252052815E-002 -7.446952925439276E-002 -7.281151598825727E-002
 -7.115350272212174E-002 -6.949548945598621E-002 -6.783747618985082E-002
 -6.617946292371535E-002 -6.452144965757983E-002 -6.286343639144440E-002
 -6.120542312530890E-002 -5.954740985917345E-002 -5.788939659303795E-002
 -5.623138332690247E-002 -5.457337006076702E-002 -5.291535679463150E-002
 -5.125734352849606E-002 -4.959933026236058E-002 -4.794131699622511E-002
 -4.628330373008962E-002 -4.462529046395413E-002 -4.296727719781864E-002
 -4.130926393168322E-002 -3.965125066554771E-002 -3.799323739941225E-002
 -3.633522413327675E-002 -8.138588685346422E-002 -7.972787358732873E-002
 -7.806986032119326E-002 -7.641184705505767E-002 -7.475383378892231E-002
 -7.309582052278679E-002 -7.143780725665133E-002 -6.977979399051587E-002
 -6.812178072438042E-002 -6.646376745824494E-002 -6.480575419210946E-002
 -6.314774092597397E-002 -6.148972765983855E-002 -5.983171439370304E-002
 -5.817370112756754E-002 -5.651568786143205E-002 -5.485767459529662E-002
 -5.319966132916110E-002 -5.154164806302562E-002 -4.988363479689015E-002
 -4.822562153075471E-002 -4.656760826461919E-002 -4.490959499848376E-002
 -4.325158173234829E-002 -4.159356846621284E-002 -3.993555520007734E-002
 -8.565872776678576E-002 -8.400071450065022E-002 -8.234270123451466E-002
 -8.068468796837928E-002 -7.902667470224381E-002 -7.736866143610836E-002
 -7.571064816997281E-002 -7.405263490383737E-002 -7.239462163770187E-002
 -7.073660837156645E-002 -6.907859510543088E-002 -6.742058183929547E-002
 -6.576256857316005E-002 -6.410455530702454E-002 -6.244654204088904E-002
 -6.078852877475357E-002 -5.913051550861812E-002 -5.747250224248260E-002
 -5.581448897634712E-002 -5.415647571021168E-002 -5.249846244407616E-002
 -5.084044917794072E-002 -4.918243591180526E-002 -4.752442264566975E-002
 -4.586640937953429E-002 -4.420839611339879E-002 -9.053096903394592E-002
 -8.887295576781039E-002 -8.721494250167501E-002 -8.555692923553944E-002
 -8.389891596940399E-002 -8.224090270326853E-002 -8.058288943713302E-002
 -7.892487617099764E-002 -7.726686290486204E-002 -7.560884963872666E-002
 -7.395083637259121E-002 -7.229282310645567E-002 -7.063480984032020E-002
 -6.897679657418465E-002 -6.731878330804927E-002 -6.566077004191374E-002
 -6.400275677577830E-002 -6.234474350964288E-002 -6.068673024350739E-002
 -5.902871697737187E-002 -5.737070371123641E-002 -5.571269044510089E-002
 -5.405467717896543E-002 -5.239666391283000E-002 -5.073865064669443E-002
 -4.908063738055896E-002 -9.591924525602323E-002 -9.426123198988774E-002
 -9.260321872375221E-002 -9.094520545761685E-002 -8.928719219148132E-002
 -8.762917892534587E-002 -8.597116565921040E-002 -8.431315239307488E-002
 -8.265513912693941E-002 -8.099712586080396E-002 -7.933911259466842E-002
 -7.768109932853300E-002 -7.602308606239749E-002 -7.436507279626201E-002
 -7.270705953012657E-002 -7.104904626399104E-002 -6.939103299785562E-002
 -6.773301973172013E-002 -6.607500646558466E-002 -6.441699319944916E-002
 -6.275897993331370E-002 -6.110096666717821E-002 -5.944295340104276E-002
 -5.778494013490724E-002 -5.612692686877181E-002 -5.446891360263626E-002
 -0.101731361532945      -0.100073348266810      -9.841533500067451E-002
 -9.675732173453906E-002 -9.509930846840352E-002 -9.344129520226820E-002
 -9.178328193613265E-002 -9.012526866999712E-002 -8.846725540386172E-002
 -8.680924213772613E-002 -8.515122887159073E-002 -8.349321560545522E-002
 -8.183520233931972E-002 -8.017718907318426E-002 -7.851917580704879E-002
 -7.686116254091334E-002 -7.520314927477785E-002 -7.354513600864236E-002
 -7.188712274250693E-002 -7.022910947637140E-002 -6.857109621023598E-002
 -6.691308294410044E-002 -6.525506967796500E-002 -6.359705641182953E-002
 -6.193904314569403E-002 -6.028102987955868E-002 -0.107867870943791     
 -0.106209857677656      -0.104551844411521      -0.102893831145385     
 -0.101235817879250      -9.957780461311407E-002 -9.791979134697872E-002
 -9.626177808084310E-002 -9.460376481470761E-002 -9.294575154857215E-002
 -9.128773828243669E-002 -8.962972501630126E-002 -8.797171175016572E-002
 -8.631369848403039E-002 -8.465568521789479E-002 -8.299767195175928E-002
 -8.133965868562389E-002 -7.968164541948837E-002 -7.802363215335299E-002
 -7.636561888721738E-002 -7.470760562108190E-002 -7.304959235494643E-002
 -7.139157908881104E-002 -6.973356582267558E-002 -6.807555255654003E-002
 -6.641753929040457E-002 -0.114223776111180      -0.112565762845044     
 -0.110907749578909      -0.109249736312773      -0.107591723046638     
 -0.105933709780502      -0.104275696514367      -0.102617683248232     
 -0.100959669982096      -9.930165671596052E-002 -9.764364344982505E-002
 -9.598563018368964E-002 -9.432761691755405E-002 -9.266960365141864E-002
 -9.101159038528321E-002 -8.935357711914772E-002 -8.769556385301228E-002
 -8.603755058687675E-002 -8.437953732074130E-002 -8.272152405460589E-002
 -8.106351078847041E-002 -7.940549752233479E-002 -7.774748425619948E-002
 -7.608947099006388E-002 -7.443145772392862E-002 -7.277344445779299E-002
 -0.120690325735507      -0.119032312469371      -0.117374299203236     
 -0.115716285937100      -0.114058272670965      -0.112400259404829     
 -0.110742246138694      -0.109084232872559      -0.107426219606423     
 -0.105768206340287      -0.104110193074152      -0.102452179808016     
 -0.100794166541881      -9.913615327574556E-002 -9.747814000961003E-002
 -9.582012674347458E-002 -9.416211347733908E-002 -9.250410021120357E-002
 -9.084608694506824E-002 -8.918807367893263E-002 -8.753006041279721E-002
 -8.587204714666170E-002 -8.421403388052615E-002 -8.255602061439073E-002
 -8.089800734825527E-002 -7.923999408211987E-002 -0.127156875359834     
 -0.125498862093698      -0.123840848827563      -0.122182835561427     
 -0.120524822295292      -0.118866809029156      -0.117208795763021     
 -0.115550782496885      -0.113892769230750      -0.112234755964614     
 -0.110576742698479      -0.108918729432343      -0.107260716166208     
 -0.105602702900072      -0.103944689633937      -0.102286676367801     
 -0.100628663101666      -9.897064983553050E-002 -9.731263656939491E-002
 -9.565462330325951E-002 -9.399661003712415E-002 -9.233859677098856E-002
 -9.068058350485314E-002 -8.902257023871764E-002 -8.736455697258211E-002
 -8.570654370644663E-002 -0.133512780527222      -0.131854767261086     
 -0.130196753994951      -0.128538740728816      -0.126880727462680     
 -0.125222714196545      -0.123564700930409      -0.121906687664274     
 -0.120248674398138      -0.118590661132003      -0.116932647865867     
 -0.115274634599732      -0.113616621333596      -0.111958608067461     
 -0.110300594801325      -0.108642581535190      -0.106984568269054     
 -0.105326555002919      -0.103668541736783      -0.102010528470648     
 -0.100352515204512      -9.869450193837685E-002 -9.703648867224143E-002
 -9.537847540610603E-002 -9.372046213997051E-002 -9.206244887383515E-002
 -0.139649289938068      -0.137991276671932      -0.136333263405797     
 -0.134675250139662      -0.133017236873526      -0.131359223607391     
 -0.129701210341255      -0.128043197075120      -0.126385183808984     
 -0.124727170542848      -0.123069157276713      -0.121411144010578     
 -0.119753130744442      -0.118095117478307      -0.116437104212171     
 -0.114779090946036      -0.113121077679900      -0.111463064413765     
 -0.109805051147629      -0.108147037881494      -0.106489024615358     
 -0.104831011349223      -0.103172998083087      -0.101514984816952     
 -9.985697155081659E-002 -9.819895828468117E-002 -0.145461406214990     
 -0.143803392948855      -0.142145379682719      -0.140487366416584     
 -0.138829353150448      -0.137171339884313      -0.135513326618177     
 -0.133855313352042      -0.132197300085907      -0.130539286819771     
 -0.128881273553635      -0.127223260287500      -0.125565247021364     
 -0.123907233755229      -0.122249220489094      -0.120591207222958     
 -0.118933193956823      -0.117275180690687      -0.115617167424552     
 -0.113959154158416      -0.112301140892281      -0.110643127626145     
 -0.108985114360010      -0.107327101093874      -0.105669087827739     
 -0.104011074561603      -0.150849682437068      -0.149191669170932     
 -0.147533655904797      -0.145875642638661      -0.144217629372526     
 -0.142559616106390      -0.140901602840255      -0.139243589574119     
 -0.137585576307984      -0.135927563041848      -0.134269549775713     
 -0.132611536509577      -0.130953523243442      -0.129295509977306     
 -0.127637496711171      -0.125979483445035      -0.124321470178900     
 -0.122663456912765      -0.121005443646629      -0.119347430380494     
 -0.117689417114358      -0.116031403848222      -0.114373390582087     
 -0.112715377315952      -0.111057364049816      -0.109399350783681     
 -0.155721923704228      -0.154063910438092      -0.152405897171957     
 -0.150747883905821      -0.149089870639686      -0.147431857373550     
 -0.145773844107415      -0.144115830841279      -0.142457817575144     
 -0.140799804309009      -0.139141791042873      -0.137483777776737     
 -0.135825764510602      -0.134167751244467      -0.132509737978331     
 -0.130851724712196      -0.129193711446060      -0.127535698179925     
 -0.125877684913789      -0.124219671647654      -0.122561658381518     
 -0.120903645115383      -0.119245631849247      -0.117587618583112     
 -0.115929605316976      -0.114271592050841      -0.159994764617549     
 -0.158336751351414      -0.156678738085278      -0.155020724819143     
 -0.153362711553007      -0.151704698286872      -0.150046685020736     
 -0.148388671754601      -0.146730658488466      -0.145072645222330     
 -0.143414631956195      -0.141756618690059      -0.140098605423924     
 -0.138440592157788      -0.136782578891652      -0.135124565625517     
 -0.133466552359382      -0.131808539093246      -0.130150525827111     
 -0.128492512560975      -0.126834499294840      -0.125176486028704     
 -0.123518472762569      -0.121860459496433      -0.120202446230298     
 -0.118544432964162      -0.163595095684350      -0.161937082418214     
 -0.160279069152079      -0.158621055885943      -0.156963042619808     
 -0.155305029353672      -0.153647016087537      -0.151989002821401     
 -0.150330989555266      -0.148672976289130      -0.147014963022995     
 -0.145356949756860      -0.143698936490724      -0.142040923224589     
 -0.140382909958453      -0.138724896692318      -0.137066883426182     
 -0.135408870160047      -0.133750856893911      -0.132092843627776     
 -0.130434830361640      -0.128776817095505      -0.127118803829369     
 -0.125460790563234      -0.123802777297098      -0.122144764030963     
 -0.166461314241876      -0.164803300975741      -0.163145287709605     
 -0.161487274443470      -0.159829261177334      -0.158171247911199     
 -0.156513234645063      -0.154855221378928      -0.153197208112792     
 -0.151539194846657      -0.149881181580521      -0.148223168314386     
 -0.146565155048250      -0.144907141782115      -0.143249128515979     
 -0.141591115249844      -0.139933101983708      -0.138275088717573     
 -0.136617075451438      -0.134959062185302      -0.133301048919167     
 -0.131643035653031      -0.129985022386896      -0.128327009120760     
 -0.126668995854625      -0.125010982588489      -0.168544378495943     
 -0.166886365229808      -0.165228351963672      -0.163570338697537     
 -0.161912325431401      -0.160254312165266      -0.158596298899130     
 -0.156938285632995      -0.155280272366859      -0.153622259100724     
 -0.151964245834588      -0.150306232568453      -0.148648219302317     
 -0.146990206036182      -0.145332192770046      -0.143674179503911     
 -0.142016166237775      -0.140358152971640      -0.138700139705504     
 -0.137042126439369      -0.135384113173233      -0.133726099907098     
 -0.132068086640963      -0.130410073374827      -0.128752060108692     
 -0.127094046842556      -0.169808646639629      -0.168150633373493     
 -0.166492620107358      -0.164834606841222      -0.163176593575087     
 -0.161518580308952      -0.159860567042816      -0.158202553776680     
 -0.156544540510545      -0.154886527244410      -0.153228513978274     
 -0.151570500712139      -0.149912487446003      -0.148254474179868     
 -0.146596460913732      -0.144938447647597      -0.143280434381461     
 -0.141622421115326      -0.139964407849190      -0.138306394583055     
 -0.136648381316919      -0.134990368050784      -0.133332354784648     
 -0.131674341518513      -0.130016328252377      -0.128358314986242     
 -0.170232486694474      -0.168574473428338      -0.166916460162203     
 -0.165258446896067      -0.163600433629932      -0.161942420363796     
 -0.160284407097661      -0.158626393831525      -0.156968380565390     
 -0.155310367299255      -0.153652354033119      -0.151994340766984     
 -0.150336327500848      -0.148678314234712      -0.147020300968577     
 -0.145362287702442      -0.143704274436306      -0.142046261170171     
 -0.140388247904035      -0.138730234637900      -0.137072221371764     
 -0.135414208105629      -0.133756194839493      -0.132098181573358     
 -0.130440168307222      -0.128782155041087     
  0.100059675438862       0.100501259560634       0.100942843682406     
  0.101384427804178       0.101826011925951       0.102267596047723     
  0.102709180169495       0.103150764291267       0.103592348413039     
  0.104033932534811       0.104475516656584       0.104917100778356     
  0.105358684900128       0.105800269021900       0.106241853143672     
  0.106683437265444       0.107125021387217       0.107566605508989     
  0.108008189630761       0.108449773752533       0.108891357874305     
  0.109332941996078       0.109774526117850       0.110216110239622     
  0.110657694361394       0.111099278483166       0.101651065162823     
  0.102092649284595       0.102534233406367       0.102975817528139     
  0.103417401649911       0.103858985771684       0.104300569893456     
  0.104742154015228       0.105183738137000       0.105625322258772     
  0.106066906380545       0.106508490502317       0.106950074624089     
  0.107391658745861       0.107833242867633       0.108274826989405     
  0.108716411111178       0.109157995232950       0.109599579354722     
  0.110041163476494       0.110482747598266       0.110924331720038     
  0.111365915841811       0.111807499963583       0.112249084085355     
  0.112690668207127       0.106398005215312       0.106839589337084     
  0.107281173458856       0.107722757580628       0.108164341702400     
  0.108605925824173       0.109047509945945       0.109489094067717     
  0.109930678189489       0.110372262311261       0.110813846433033     
  0.111255430554806       0.111697014676578       0.112138598798350     
  0.112580182920122       0.113021767041894       0.113463351163667     
  0.113904935285439       0.114346519407211       0.114788103528983     
  0.115229687650755       0.115671271772527       0.116112855894300     
  0.116554440016072       0.116996024137844       0.117437608259616     
  0.114219274135931       0.114660858257703       0.115102442379475     
  0.115544026501247       0.115985610623019       0.116427194744791     
  0.116868778866564       0.117310362988336       0.117751947110108     
  0.118193531231880       0.118635115353652       0.119076699475425     
  0.119518283597197       0.119959867718969       0.120401451840741     
  0.120843035962513       0.121284620084285       0.121726204206058     
  0.122167788327830       0.122609372449602       0.123050956571374     
  0.123492540693146       0.123934124814919       0.124375708936691     
  0.124817293058463       0.125258877180235       0.124981047844982     
  0.125422631966754       0.125864216088526       0.126305800210298     
  0.126747384332070       0.127188968453843       0.127630552575615     
  0.128072136697387       0.128513720819159       0.128955304940931     
  0.129396889062704       0.129838473184476       0.130280057306248     
  0.130721641428020       0.131163225549792       0.131604809671564     
  0.132046393793337       0.132487977915109       0.132929562036881     
  0.133371146158653       0.133812730280425       0.134254314402197     
  0.134695898523970       0.135137482645742       0.135579066767514     
  0.136020650889286       0.138499189410576       0.138940773532348     
  0.139382357654120       0.139823941775893       0.140265525897665     
  0.140707110019437       0.141148694141209       0.141590278262981     
  0.142031862384754       0.142473446506526       0.142915030628298     
  0.143356614750070       0.143798198871842       0.144239782993615     
  0.144681367115387       0.145122951237159       0.145564535358931     
  0.146006119480703       0.146447703602475       0.146889287724248     
  0.147330871846020       0.147772455967792       0.148214040089564     
  0.148655624211336       0.149097208333109       0.149538792454881     
  0.154542399682590       0.154983983804362       0.155425567926134     
  0.155867152047906       0.156308736169678       0.156750320291451     
  0.157191904413223       0.157633488534995       0.158075072656767     
  0.158516656778539       0.158958240900312       0.159399825022084     
  0.159841409143856       0.160282993265628       0.160724577387400     
  0.161166161509172       0.161607745630945       0.162049329752717     
  0.162490913874489       0.162932497996261       0.163374082118033     
  0.163815666239805       0.164257250361578       0.164698834483350     
  0.165140418605122       0.165582002726894       0.172836174885250     
  0.173277759007022       0.173719343128794       0.174160927250566     
  0.174602511372339       0.175044095494111       0.175485679615883     
  0.175927263737655       0.176368847859427       0.176810431981200     
  0.177252016102972       0.177693600224744       0.178135184346516     
  0.178576768468288       0.179018352590060       0.179459936711833     
  0.179901520833605       0.180343104955377       0.180784689077149     
  0.181226273198921       0.181667857320694       0.182109441442466     
  0.182551025564238       0.182992609686010       0.183434193807782     
  0.183875777929554       0.193067503452847       0.193509087574619     
  0.193950671696391       0.194392255818163       0.194833839939935     
  0.195275424061708       0.195717008183480       0.196158592305252     
  0.196600176427024       0.197041760548796       0.197483344670568     
  0.197924928792340       0.198366512914113       0.198808097035885     
  0.199249681157657       0.199691265279429       0.200132849401201     
  0.200574433522974       0.201016017644746       0.201457601766518     
  0.201899185888290       0.202340770010062       0.202782354131835     
  0.203223938253607       0.203665522375379       0.204107106497151     
  0.214890221744404       0.215331805866176       0.215773389987948     
  0.216214974109721       0.216656558231493       0.217098142353265     
  0.217539726475037       0.217981310596809       0.218422894718581     
  0.218864478840354       0.219306062962126       0.219747647083898     
  0.220189231205670       0.220630815327442       0.221072399449214     
  0.221513983570987       0.221955567692759       0.222397151814531     
  0.222838735936303       0.223280320058075       0.223721904179848     
  0.224163488301620       0.224605072423392       0.225046656545164     
  0.225488240666936       0.225929824788708       0.237930936999553     
  0.238372521121325       0.238814105243098       0.239255689364870     
  0.239697273486642       0.240138857608414       0.240580441730186     
  0.241022025851959       0.241463609973731       0.241905194095503     
  0.242346778217275       0.242788362339047       0.243229946460819     
  0.243671530582592       0.244113114704364       0.244554698826136     
  0.244996282947908       0.245437867069680       0.245879451191452     
  0.246321035313225       0.246762619434997       0.247204203556769     
  0.247645787678541       0.248087371800313       0.248528955922085     
  0.248970540043858       0.261795416192185       0.262237000313958     
  0.262678584435730       0.263120168557502       0.263561752679274     
  0.264003336801046       0.264444920922819       0.264886505044591     
  0.265328089166363       0.265769673288135       0.266211257409907     
  0.266652841531679       0.267094425653452       0.267536009775224     
  0.267977593896996       0.268419178018768       0.268860762140540     
  0.269302346262313       0.269743930384085       0.270185514505857     
  0.270627098627629       0.271068682749401       0.271510266871174     
  0.271951850992945       0.272393435114718       0.272835019236490     
  0.286075331466831       0.286516915588603       0.286958499710376     
  0.287400083832148       0.287841667953920       0.288283252075692     
  0.288724836197464       0.289166420319237       0.289608004441009     
  0.290049588562781       0.290491172684553       0.290932756806325     
  0.291374340928097       0.291815925049869       0.292257509171642     
  0.292699093293414       0.293140677415186       0.293582261536958     
  0.294023845658730       0.294465429780503       0.294907013902275     
  0.295348598024047       0.295790182145819       0.296231766267592     
  0.296673350389364       0.297114934511136       0.310355246741477     
  0.310796830863249       0.311238414985021       0.311679999106793     
  0.312121583228566       0.312563167350338       0.313004751472110     
  0.313446335593882       0.313887919715654       0.314329503837427     
  0.314771087959199       0.315212672080971       0.315654256202743     
  0.316095840324515       0.316537424446287       0.316979008568060     
  0.317420592689832       0.317862176811604       0.318303760933376     
  0.318745345055148       0.319186929176920       0.319628513298692     
  0.320070097420465       0.320511681542237       0.320953265664009     
  0.321394849785781       0.334219725934109       0.334661310055881     
  0.335102894177653       0.335544478299426       0.335986062421198     
  0.336427646542970       0.336869230664742       0.337310814786515     
  0.337752398908287       0.338193983030059       0.338635567151831     
  0.339077151273603       0.339518735395375       0.339960319517148     
  0.340401903638920       0.340843487760692       0.341285071882464     
  0.341726656004236       0.342168240126008       0.342609824247781     
  0.343051408369553       0.343492992491325       0.343934576613097     
  0.344376160734869       0.344817744856641       0.345259328978414     
  0.357260441189259       0.357702025311031       0.358143609432803     
  0.358585193554575       0.359026777676347       0.359468361798119     
  0.359909945919891       0.360351530041664       0.360793114163436     
  0.361234698285208       0.361676282406980       0.362117866528752     
  0.362559450650524       0.363001034772297       0.363442618894069     
  0.363884203015841       0.364325787137613       0.364767371259385     
  0.365208955381158       0.365650539502930       0.366092123624702     
  0.366533707746474       0.366975291868246       0.367416875990018     
  0.367858460111791       0.368300044233563       0.379083159480816     
  0.379524743602588       0.379966327724360       0.380407911846132     
  0.380849495967905       0.381291080089676       0.381732664211449     
  0.382174248333221       0.382615832454993       0.383057416576765     
  0.383499000698538       0.383940584820310       0.384382168942082     
  0.384823753063854       0.385265337185626       0.385706921307399     
  0.386148505429171       0.386590089550943       0.387031673672715     
  0.387473257794487       0.387914841916259       0.388356426038032     
  0.388798010159804       0.389239594281576       0.389681178403348     
  0.390122762525120       0.399314488048412       0.399756072170185     
  0.400197656291957       0.400639240413729       0.401080824535501     
  0.401522408657273       0.401963992779046       0.402405576900818     
  0.402847161022590       0.403288745144362       0.403730329266134     
  0.404171913387906       0.404613497509678       0.405055081631451     
  0.405496665753223       0.405938249874995       0.406379833996767     
  0.406821418118540       0.407263002240312       0.407704586362084     
  0.408146170483856       0.408587754605628       0.409029338727401     
  0.409470922849172       0.409912506970945       0.410354091092717     
  0.417608263251073       0.418049847372845       0.418491431494617     
  0.418933015616389       0.419374599738161       0.419816183859934     
  0.420257767981706       0.420699352103478       0.421140936225250     
  0.421582520347022       0.422024104468794       0.422465688590567     
  0.422907272712339       0.423348856834111       0.423790440955883     
  0.424232025077655       0.424673609199428       0.425115193321200     
  0.425556777442972       0.425998361564744       0.426439945686516     
  0.426881529808288       0.427323113930060       0.427764698051833     
  0.428206282173605       0.428647866295377       0.433651473523087     
  0.434093057644858       0.434534641766630       0.434976225888403     
  0.435417810010175       0.435859394131947       0.436300978253719     
  0.436742562375491       0.437184146497264       0.437625730619036     
  0.438067314740808       0.438508898862580       0.438950482984352     
  0.439392067106124       0.439833651227896       0.440275235349669     
  0.440716819471441       0.441158403593213       0.441599987714985     
  0.442041571836758       0.442483155958530       0.442924740080302     
  0.443366324202074       0.443807908323846       0.444249492445618     
  0.444691076567391       0.447169615088681       0.447611199210453     
  0.448052783332225       0.448494367453997       0.448935951575769     
  0.449377535697542       0.449819119819314       0.450260703941086     
  0.450702288062858       0.451143872184630       0.451585456306403     
  0.452027040428175       0.452468624549947       0.452910208671719     
  0.453351792793491       0.453793376915263       0.454234961037035     
  0.454676545158808       0.455118129280580       0.455559713402352     
  0.456001297524124       0.456442881645896       0.456884465767668     
  0.457326049889440       0.457767634011213       0.458209218132985     
  0.457931388797732       0.458372972919504       0.458814557041276     
  0.459256141163048       0.459697725284821       0.460139309406593     
  0.460580893528365       0.461022477650137       0.461464061771909     
  0.461905645893681       0.462347230015454       0.462788814137226     
  0.463230398258998       0.463671982380770       0.464113566502542     
  0.464555150624315       0.464996734746087       0.465438318867859     
  0.465879902989631       0.466321487111403       0.466763071233176     
  0.467204655354947       0.467646239476720       0.468087823598492     
  0.468529407720264       0.468970991842036       0.465752657718351     
  0.466194241840123       0.466635825961895       0.467077410083667     