 Title = "Wing and Wake"
 VARIABLES = "X" "Y" "Z" "GAM"
 Zone I=   26 J=   25 K=1  T="Blade"
 DATAPACKING=BLOCK
 VARLOCATION=([4]=CELLCENTERED)
  7.833152672568326E-002  7.918568278516680E-002  8.003983884465041E-002
  8.089399490413385E-002  8.174815096361740E-002  8.260230702310080E-002
  8.345646308258428E-002  8.431061914206767E-002  8.516477520155105E-002
  8.601893126103478E-002  8.687308732051813E-002  8.772724338000154E-002
  8.858139943948518E-002  8.943555549896848E-002  9.028971155845213E-002
  9.114386761793555E-002  9.199802367741909E-002  9.285217973690280E-002
  9.370633579638590E-002  9.456049185586940E-002  9.541464791535302E-002
  9.626880397483654E-002  9.712296003431974E-002  9.797711609380343E-002
  9.883127215328680E-002  9.968542821277042E-002  7.975982442754578E-002
  8.061398048702931E-002  8.146813654651278E-002  8.232229260599629E-002
  8.317644866547978E-002  8.403060472496306E-002  8.488476078444671E-002
  8.573891684393010E-002  8.659307290341363E-002  8.744722896289711E-002
  8.830138502238052E-002  8.915554108186403E-002  9.000969714134757E-002
  9.086385320083101E-002  9.171800926031434E-002  9.257216531979805E-002
  9.342632137928146E-002  9.428047743876480E-002  9.513463349824845E-002
  9.598878955773185E-002  9.684294561721529E-002  9.769710167669880E-002
  9.855125773618227E-002  9.940541379566581E-002  0.100259569855149     
  0.101113725914633       8.402027896345500E-002  8.487443502293826E-002
  8.572859108242198E-002  8.658274714190541E-002  8.743690320138892E-002
  8.829105926087248E-002  8.914521532035585E-002  8.999937137983924E-002
  9.085352743932294E-002  9.170768349880636E-002  9.256183955828949E-002
  9.341599561777320E-002  9.427015167725665E-002  9.512430773674019E-002
  9.597846379622359E-002  9.683261985570693E-002  9.768677591519066E-002
  9.854093197467421E-002  9.939508803415764E-002  0.100249244093641     
  0.101103400153125       0.101957556212608       0.102811712272091     
  0.103665868331575       0.104520024391058       0.105374180450542     
  9.103999277508058E-002  9.189414883456426E-002  9.274830489404763E-002
  9.360246095353107E-002  9.445661701301467E-002  9.531077307249804E-002
  9.616492913198139E-002  9.701908519146495E-002  9.787324125094840E-002
  9.872739731043216E-002  9.958155336991543E-002  0.100435709429399     
  0.101289865488882       0.102144021548366       0.102998177607850     
  0.103852333667333       0.104706489726816       0.105560645786300     
  0.106414801845784       0.107268957905267       0.108123113964750     
  0.108977270024234       0.109831426083717       0.110685582143200     
  0.111539738202684       0.112393894262168       0.100698856612874     
  0.101553012672357       0.102407168731840       0.103261324791324     
  0.104115480850807       0.104969636910291       0.105823792969774     
  0.106677949029258       0.107532105088741       0.108386261148224     
  0.109240417207708       0.110094573267192       0.110948729326675     
  0.111802885386158       0.112657041445642       0.113511197505125     
  0.114365353564609       0.115219509624093       0.116073665683576     
  0.116927821743059       0.117781977802543       0.118636133862026     
  0.119490289921510       0.120344445980993       0.121198602040477     
  0.122052758099960       0.112831604638625       0.113685760698109     
  0.114539916757592       0.115394072817076       0.116248228876559     
  0.117102384936043       0.117956540995526       0.118810697055010     
  0.119664853114493       0.120519009173977       0.121373165233460     
  0.122227321292943       0.123081477352427       0.123935633411910     
  0.124789789471394       0.125643945530878       0.126498101590361     
  0.127352257649844       0.128206413709328       0.129060569768812     
  0.129914725828295       0.130768881887778       0.131623037947262     
  0.132477194006745       0.133331350066229       0.134185506125712     
  0.127230642169783       0.128084798229266       0.128938954288750     
  0.129793110348233       0.130647266407717       0.131501422467200     
  0.132355578526684       0.133209734586167       0.134063890645651     
  0.134918046705134       0.135772202764618       0.136626358824101     
  0.137480514883585       0.138334670943068       0.139188827002552     
  0.140042983062035       0.140897139121519       0.141751295181002     
  0.142605451240486       0.143459607299969       0.144313763359453     
  0.145167919418936       0.146022075478419       0.146876231537903     
  0.147730387597387       0.148584543656870       0.143649597682021     
  0.144503753741504       0.145357909800988       0.146212065860471     
  0.147066221919955       0.147920377979438       0.148774534038922     
  0.149628690098405       0.150482846157889       0.151337002217372     
  0.152191158276855       0.153045314336339       0.153899470395822     
  0.154753626455306       0.155607782514790       0.156461938574273     
  0.157316094633757       0.158170250693240       0.159024406752723     
  0.159878562812207       0.160732718871690       0.161586874931174     
  0.162441030990657       0.163295187050141       0.164149343109624     
  0.165003499169108       0.161807538294330       0.162661694353813     
  0.163515850413297       0.164370006472780       0.165224162532263     
  0.166078318591747       0.166932474651231       0.167786630710714     
  0.168640786770197       0.169494942829681       0.170349098889164     
  0.171203254948648       0.172057411008131       0.172911567067615     
  0.173765723127098       0.174619879186582       0.175474035246065     
  0.176328191305549       0.177182347365032       0.178036503424516     
  0.178890659483999       0.179744815543483       0.180598971602967     
  0.181453127662450       0.182307283721933       0.183161439781416     
  0.181393776608501       0.182247932667985       0.183102088727468     
  0.183956244786952       0.184810400846435       0.185664556905918     
  0.186518712965402       0.187372869024885       0.188227025084369     
  0.189081181143853       0.189935337203336       0.190789493262819     
  0.191643649322303       0.192497805381786       0.193351961441270     
  0.194206117500753       0.195060273560237       0.195914429619720     
  0.196768585679204       0.197622741738687       0.198476897798171     
  0.199331053857654       0.200185209917138       0.201039365976621     
  0.201893522036104       0.202747678095588       0.202073186656648     
  0.202927342716131       0.203781498775615       0.204635654835098     
  0.205489810894582       0.206343966954065       0.207198123013549     
  0.208052279073033       0.208906435132516       0.209760591191999     
  0.210614747251483       0.211468903310966       0.212323059370449     
  0.213177215429933       0.214031371489417       0.214885527548900     
  0.215739683608383       0.216593839667867       0.217447995727351     
  0.218302151786834       0.219156307846317       0.220010463905801     
  0.220864619965284       0.221718776024768       0.222572932084252     
  0.223427088143735       0.223491937999431       0.224346094058915     
  0.225200250118398       0.226054406177882       0.226908562237365     
  0.227762718296849       0.228616874356332       0.229471030415816     
  0.230325186475299       0.231179342534783       0.232033498594266     
  0.232887654653750       0.233741810713233       0.234595966772717     
  0.235450122832200       0.236304278891683       0.237158434951167     
  0.238012591010651       0.238866747070134       0.239720903129618     
  0.240575059189101       0.241429215248584       0.242283371308068     
  0.243137527367551       0.243991683427035       0.244845839486518     
  0.245283549862976       0.246137705922459       0.246991861981944     
  0.247846018041426       0.248700174100910       0.249554330160394     
  0.250408486219877       0.251262642279361       0.252116798338843     
  0.252970954398327       0.253825110457811       0.254679266517294     
  0.255533422576777       0.256387578636262       0.257241734695745     
  0.258095890755229       0.258950046814712       0.259804202874195     
  0.260658358933679       0.261512514993161       0.262366671052645     
  0.263220827112129       0.264074983171613       0.264929139231096     
  0.265783295290579       0.266637451350063       0.267075161726521     
  0.267929317786004       0.268783473845488       0.269637629904971     
  0.270491785964455       0.271345942023938       0.272200098083421     
  0.273054254142905       0.273908410202389       0.274762566261872     
  0.275616722321355       0.276470878380839       0.277325034440323     
  0.278179190499806       0.279033346559289       0.279887502618773     
  0.280741658678257       0.281595814737741       0.282449970797224     
  0.283304126856707       0.284158282916191       0.285012438975673     
  0.285866595035158       0.286720751094641       0.287574907154124     
  0.288429063213608       0.288493913069304       0.289348069128788     
  0.290202225188271       0.291056381247755       0.291910537307238     
  0.292764693366721       0.293618849426205       0.294473005485689     
  0.295327161545172       0.296181317604656       0.297035473664139     
  0.297889629723622       0.298743785783106       0.299597941842589     
  0.300452097902073       0.301306253961556       0.302160410021039     
  0.303014566080523       0.303868722140006       0.304722878199490     
  0.305577034258974       0.306431190318457       0.307285346377940     
  0.308139502437425       0.308993658496907       0.309847814556391     
  0.309173323117451       0.310027479176934       0.310881635236418     
  0.311735791295902       0.312589947355385       0.313444103414868     
  0.314298259474352       0.315152415533835       0.316006571593319     
  0.316860727652803       0.317714883712287       0.318569039771769     
  0.319423195831253       0.320277351890736       0.321131507950220     
  0.321985664009703       0.322839820069187       0.323693976128670     
  0.324548132188153       0.325402288247637       0.326256444307121     
  0.327110600366604       0.327964756426088       0.328818912485571     
  0.329673068545055       0.330527224604538       0.328759561431622     
  0.329613717491106       0.330467873550589       0.331322029610072     
  0.332176185669556       0.333030341729040       0.333884497788523     
  0.334738653848006       0.335592809907491       0.336446965966973     
  0.337301122026457       0.338155278085941       0.339009434145424     
  0.339863590204907       0.340717746264391       0.341571902323875     
  0.342426058383358       0.343280214442841       0.344134370502325     
  0.344988526561808       0.345842682621292       0.346696838680776     
  0.347550994740259       0.348405150799742       0.349259306859226     
  0.350113462918709       0.346917502043931       0.347771658103415     
  0.348625814162899       0.349479970222382       0.350334126281866     
  0.351188282341349       0.352042438400832       0.352896594460316     
  0.353750750519799       0.354604906579282       0.355459062638766     
  0.356313218698249       0.357167374757733       0.358021530817217     
  0.358875686876700       0.359729842936183       0.360583998995667     
  0.361438155055150       0.362292311114634       0.363146467174117     
  0.364000623233600       0.364854779293085       0.365708935352568     
  0.366563091412051       0.367417247471535       0.368271403531018     
  0.363336457556169       0.364190613615652       0.365044769675136     
  0.365898925734619       0.366753081794103       0.367607237853587     
  0.368461393913069       0.369315549972553       0.370169706032037     
  0.371023862091520       0.371878018151004       0.372732174210487     
  0.373586330269971       0.374440486329454       0.375294642388938     
  0.376148798448422       0.377002954507905       0.377857110567388     
  0.378711266626872       0.379565422686356       0.380419578745838     
  0.381273734805322       0.382127890864805       0.382982046924289     
  0.383836202983773       0.384690359043255       0.377735495087327     
  0.378589651146810       0.379443807206293       0.380297963265778     
  0.381152119325261       0.382006275384744       0.382860431444227     
  0.383714587503711       0.384568743563195       0.385422899622678     
  0.386277055682161       0.387131211741645       0.387985367801128     
  0.388839523860612       0.389693679920096       0.390547835979578     
  0.391401992039062       0.392256148098546       0.393110304158029     
  0.393964460217513       0.394818616276996       0.395672772336480     
  0.396526928395963       0.397381084455447       0.398235240514930     
  0.399089396574414       0.389868243113079       0.390722399172562     
  0.391576555232045       0.392430711291529       0.393284867351013     
  0.394139023410496       0.394993179469979       0.395847335529463     
  0.396701491588947       0.397555647648430       0.398409803707914     
  0.399263959767397       0.400118115826881       0.400972271886364     
  0.401826427945848       0.402680584005331       0.403534740064815     
  0.404388896124298       0.405243052183782       0.406097208243265     
  0.406951364302749       0.407805520362232       0.408659676421715     
  0.409513832481199       0.410367988540682       0.411222144600166     
  0.399527106950871       0.400381263010355       0.401235419069838     
  0.402089575129322       0.402943731188806       0.403797887248289     
  0.404652043307772       0.405506199367256       0.406360355426739     
  0.407214511486223       0.408068667545706       0.408922823605189     
  0.409776979664673       0.410631135724157       0.411485291783641     
  0.412339447843123       0.413193603902607       0.414047759962090     
  0.414901916021574       0.415756072081058       0.416610228140542     
  0.417464384200025       0.418318540259508       0.419172696318991     
  0.420026852378474       0.420881008437959       0.406546820762497     
  0.407400976821981       0.408255132881464       0.409109288940948     
  0.409963445000431       0.410817601059915       0.411671757119398     
  0.412525913178882       0.413380069238365       0.414234225297849     
  0.415088381357332       0.415942537416816       0.416796693476299     
  0.417650849535783       0.418505005595266       0.419359161654749     
  0.420213317714233       0.421067473773716       0.421921629833200     
  0.422775785892683       0.423629941952166       0.424484098011650     
  0.425338254071133       0.426192410130617       0.427046566190101     
  0.427900722249584       0.410807275298407       0.411661431357889     
  0.412515587417373       0.413369743476857       0.414223899536340     
  0.415078055595824       0.415932211655307       0.416786367714790     
  0.417640523774274       0.418494679833758       0.419348835893241     
  0.420202991952724       0.421057148012208       0.421911304071692     
  0.422765460131175       0.423619616190658       0.424473772250142     
  0.425327928309626       0.426182084369109       0.427036240428591     
  0.427890396488076       0.428744552547559       0.429598708607043     
  0.430452864666527       0.431307020726010       0.432161176785493     
  0.412235573000268       0.413089729059752       0.413943885119237     
  0.414798041178720       0.415652197238202       0.416506353297687     
  0.417360509357170       0.418214665416653       0.419068821476137     
  0.419922977535620       0.420777133595104       0.421631289654587     
  0.422485445714071       0.423339601773554       0.424193757833038     
  0.425047913892521       0.425902069952004       0.426756226011488     
  0.427610382070971       0.428464538130454       0.429318694189938     
  0.430172850249422       0.431027006308906       0.431881162368389     
  0.432735318427872       0.433589474487356     
  9.454190563355264E-002  9.305381223818712E-002  9.156571884282190E-002
  9.007762544745650E-002  8.858953205209116E-002  8.710143865672551E-002
  8.561334526136018E-002  8.412525186599490E-002  8.263715847062937E-002
  8.114906507526387E-002  7.966097167989845E-002  7.817287828453302E-002
  7.668478488916761E-002  7.519669149380204E-002  7.370859809843680E-002
  7.222050470307138E-002  7.073241130770590E-002  6.924431791234044E-002
  6.775622451697494E-002  6.626813112160966E-002  6.478003772624427E-002
  6.329194433087883E-002  6.180385093551335E-002  6.031575754014790E-002
  5.882766414478253E-002  5.733957074941717E-002  9.536173934868891E-002
  9.387364595332354E-002  9.238555255795794E-002  9.089745916259261E-002
  8.940936576722727E-002  8.792127237186170E-002  8.643317897649633E-002
  8.494508558113081E-002  8.345699218576537E-002  8.196889879040013E-002
  8.048080539503456E-002  7.899271199966929E-002  7.750461860430391E-002
  7.601652520893826E-002  7.452843181357283E-002  7.304033841820748E-002
  7.155224502284210E-002  7.006415162747665E-002  6.857605823211119E-002
  6.708796483674584E-002  6.559987144138046E-002  6.411177804601491E-002
  6.262368465064956E-002  6.113559125528409E-002  5.964749785991875E-002
  5.815940446455323E-002  9.780721291193051E-002  9.631911951656501E-002
  9.483102612119981E-002  9.334293272583420E-002  9.185483933046888E-002
  9.036674593510341E-002  8.887865253973806E-002  8.739055914437267E-002
  8.590246574900719E-002  8.441437235364196E-002  8.292627895827631E-002
  8.143818556291094E-002  7.995009216754553E-002  7.846199877217985E-002
  7.697390537681464E-002  7.548581198144910E-002  7.399771858608381E-002
  7.250962519071834E-002  7.102153179535288E-002  6.953343839998753E-002
  6.804534500462207E-002  6.655725160925660E-002  6.506915821389118E-002
  6.358106481852567E-002  6.209297142316034E-002  6.060487802779494E-002
  0.101836483592597       0.100348390197232       9.886029680186655E-002
  9.737220340650138E-002  9.588411001113570E-002  9.439601661577027E-002
  9.290792322040481E-002  9.141982982503939E-002  8.993173642967386E-002
  8.844364303430860E-002  8.695554963894316E-002  8.546745624357770E-002
  8.397936284821235E-002  8.249126945284695E-002  8.100317605748171E-002
  7.951508266211600E-002  7.802698926675063E-002  7.653889587138542E-002
  7.505080247601995E-002  7.356270908065435E-002  7.207461568528883E-002
  7.058652228992346E-002  6.909842889455807E-002  6.761033549919254E-002
  6.612224210382729E-002  6.463414870846183E-002  0.107380609452218     
  0.105892516056853       0.104404422661488       0.102916329266122     
  0.101428235870757       9.994014247539097E-002  9.845204908002546E-002
  9.696395568466028E-002  9.547586228929464E-002  9.398776889392928E-002
  9.249967549856410E-002  9.101158210319880E-002  8.952348870783307E-002
  8.803539531246764E-002  8.654730191710257E-002  8.505920852173682E-002
  8.357111512637143E-002  8.208302173100612E-002  8.059492833564059E-002
  7.910683494027516E-002  7.761874154490964E-002  7.613064814954429E-002
  7.464255475417884E-002  7.315446135881358E-002  7.166636796344794E-002
  7.017827456808264E-002  0.114344728960213       0.112856635564847     
  0.111368542169482       0.109880448774117       0.108392355378751     
  0.106904261983386       0.105416168588020       0.103928075192655     
  0.102439981797289       0.100951888401924       9.946379500655855E-002
  9.797570161119326E-002  9.648760821582782E-002  9.499951482046221E-002
  9.351142142509680E-002  9.202332802973134E-002  9.053523463436601E-002
  8.904714123900065E-002  8.755904784363504E-002  8.607095444826988E-002
  8.458286105290441E-002  8.309476765753895E-002  8.160667426217363E-002
  8.011858086680808E-002  7.863048747144269E-002  7.714239407607726E-002
  0.122609684100981       0.121121590705615       0.119633497310250     
  0.118145403914885       0.116657310519519       0.115169217124154     
  0.113681123728788       0.112193030333423       0.110704936938057     
  0.109216843542692       0.107728750147327       0.106240656751961     
  0.104752563356596       0.103264469961230       0.101776376565865     
  0.100288283170499       9.880018977513419E-002  9.731209637976868E-002
  9.582400298440315E-002  9.433590958903749E-002  9.284781619367220E-002
  9.135972279830694E-002  8.987162940294158E-002  8.838353600757616E-002
  8.689544261221066E-002  8.540734921684516E-002  0.132034059200585     
  0.130545965805220       0.129057872409854       0.127569779014489     
  0.126081685619123       0.124593592223758       0.123105498828393     
  0.121617405433027       0.120129312037662       0.118641218642297     
  0.117153125246931       0.115665031851565       0.114176938456200     
  0.112688845060835       0.111200751665469       0.109712658270104     
  0.108224564874739       0.106736471479373       0.105248378084007     
  0.103760284688642       0.102272191293277       0.100784097897911     
  9.929600450254558E-002  9.780791110718018E-002  9.631981771181494E-002
  9.483172431644943E-002  0.142456600588141       0.140968507192776     
  0.139480413797410       0.137992320402045       0.136504227006679     
  0.135016133611314       0.133528040215949       0.132039946820583     
  0.130551853425218       0.129063760029852       0.127575666634487     
  0.126087573239121       0.124599479843756       0.123111386448390     
  0.121623293053025       0.120135199657660       0.118647106262294     
  0.117159012866929       0.115670919471563       0.114182826076198     
  0.112694732680833       0.111206639285467       0.109718545890102     
  0.108230452494736       0.106742359099371       0.105254265704005     
  0.153698975690833       0.152210882295468       0.150722788900102     
  0.149234695504737       0.147746602109371       0.146258508714006     
  0.144770415318641       0.143282321923275       0.141794228527909     
  0.140306135132544       0.138818041737179       0.137329948341814     
  0.135841854946448       0.134353761551082       0.132865668155717     
  0.131377574760352       0.129889481364986       0.128401387969621     
  0.126913294574256       0.125425201178890       0.123937107783525     
  0.122449014388159       0.120960920992794       0.119472827597428     
  0.117984734202063       0.116496640806698       0.165568824353679     
  0.164080730958313       0.162592637562948       0.161104544167582     
  0.159616450772217       0.158128357376852       0.156640263981487     
  0.155152170586121       0.153664077190756       0.152175983795390     
  0.150687890400025       0.149199797004659       0.147711703609294     
  0.146223610213929       0.144735516818563       0.143247423423198     
  0.141759330027832       0.140271236632467       0.138783143237101     
  0.137295049841736       0.135806956446370       0.134318863051005     
  0.132830769655640       0.131342676260274       0.129854582864909     
  0.128366489469543       0.177863050175114       0.176374956779749     
  0.174886863384383       0.173398769989018       0.171910676593652     
  0.170422583198287       0.168934489802921       0.167446396407556     
  0.165958303012191       0.164470209616825       0.162982116221459     
  0.161494022826094       0.160005929430729       0.158517836035364     
  0.157029742639998       0.155541649244632       0.154053555849267     
  0.152565462453902       0.151077369058536       0.149589275663171     
  0.148101182267806       0.146613088872440       0.145124995477074     
  0.143636902081709       0.142148808686344       0.140660715290978     
  0.190371295542729       0.188883202147364       0.187395108751999     
  0.185907015356633       0.184418921961268       0.182930828565903     
  0.181442735170537       0.179954641775171       0.178466548379806     
  0.176978454984440       0.175490361589075       0.174002268193710     
  0.172514174798344       0.171026081402979       0.169537988007613     
  0.168049894612248       0.166561801216883       0.165073707821517     
  0.163585614426152       0.162097521030786       0.160609427635421     
  0.159121334240055       0.157633240844690       0.156145147449324     
  0.154657054053959       0.153168960658594       0.202879540910345     
  0.201391447514980       0.199903354119614       0.198415260724248     
  0.196927167328883       0.195439073933518       0.193950980538152     
  0.192462887142787       0.190974793747421       0.189486700352056     
  0.187998606956691       0.186510513561325       0.185022420165960     
  0.183534326770595       0.182046233375229       0.180558139979863     
  0.179070046584498       0.177581953189133       0.176093859793767     
  0.174605766398402       0.173117673003036       0.171629579607671     
  0.170141486212305       0.168653392816940       0.167165299421574     
  0.165677206026209       0.215173766731780       0.213685673336414     
  0.212197579941049       0.210709486545683       0.209221393150318     
  0.207733299754952       0.206245206359587       0.204757112964222     
  0.203269019568856       0.201780926173491       0.200292832778125     
  0.198804739382759       0.197316645987395       0.195828552592029     
  0.194340459196664       0.192852365801298       0.191364272405933     
  0.189876179010567       0.188388085615202       0.186899992219837     
  0.185411898824471       0.183923805429105       0.182435712033740     
  0.180947618638375       0.179459525243009       0.177971431847644     
  0.227043615394626       0.225555521999260       0.224067428603895     
  0.222579335208529       0.221091241813164       0.219603148417798     
  0.218115055022433       0.216626961627068       0.215138868231702     
  0.213650774836337       0.212162681440972       0.210674588045606     
  0.209186494650241       0.207698401254875       0.206210307859509     
  0.204722214464145       0.203234121068778       0.201746027673413     
  0.200257934278048       0.198769840882682       0.197281747487317     
  0.195793654091952       0.194305560696586       0.192817467301221     
  0.191329373905855       0.189841280510490       0.238285990497318     
  0.236797897101952       0.235309803706587       0.233821710311221     
  0.232333616915856       0.230845523520490       0.229357430125125     
  0.227869336729760       0.226381243334395       0.224893149939029     
  0.223405056543663       0.221916963148298       0.220428869752932     
  0.218940776357566       0.217452682962202       0.215964589566836     
  0.214476496171471       0.212988402776105       0.211500309380740     
  0.210012215985375       0.208524122590009       0.207036029194644     
  0.205547935799278       0.204059842403913       0.202571749008547     
  0.201083655613182       0.248708531884873       0.247220438489508     
  0.245732345094143       0.244244251698778       0.242756158303412     
  0.241268064908047       0.239779971512681       0.238291878117316     
  0.236803784721950       0.235315691326585       0.233827597931219     
  0.232339504535853       0.230851411140489       0.229363317745123     
  0.227875224349758       0.226387130954392       0.224899037559027     
  0.223410944163661       0.221922850768296       0.220434757372931     
  0.218946663977565       0.217458570582199       0.215970477186835     
  0.214482383791469       0.212994290396104       0.211506197000738     
  0.258132906984478       0.256644813589113       0.255156720193747     
  0.253668626798382       0.252180533403016       0.250692440007651     
  0.249204346612285       0.247716253216920       0.246228159821555     
  0.244740066426189       0.243251973030824       0.241763879635458     
  0.240275786240093       0.238787692844727       0.237299599449361     
  0.235811506053996       0.234323412658631       0.232835319263266     
  0.231347225867900       0.229859132472535       0.228371039077170     
  0.226882945681804       0.225394852286438       0.223906758891073     
  0.222418665495708       0.220930572100342       0.266397862125246     
  0.264909768729880       0.263421675334515       0.261933581939149     
  0.260445488543784       0.258957395148419       0.257469301753053     
  0.255981208357688       0.254493114962323       0.253005021566956     
  0.251516928171591       0.250028834776226       0.248540741380861     
  0.247052647985496       0.245564554590130       0.244076461194765     
  0.242588367799399       0.241100274404033       0.239612181008668     
  0.238124087613303       0.236635994217937       0.235147900822572     
  0.233659807427207       0.232171714031841       0.230683620636476     
  0.229195527241110       0.273361981633240       0.271873888237875     
  0.270385794842510       0.268897701447144       0.267409608051779     
  0.265921514656413       0.264433421261048       0.262945327865682     
  0.261457234470318       0.259969141074952       0.258481047679587     
  0.256992954284220       0.255504860888856       0.254016767493490     
  0.252528674098125       0.251040580702759       0.249552487307394     
  0.248064393912028       0.246576300516663       0.245088207121298     
  0.243600113725932       0.242112020330567       0.240623926935201     
  0.239135833539836       0.237647740144470       0.236159646749105     
  0.278906107492861       0.277418014097496       0.275929920702130     
  0.274441827306765       0.272953733911400       0.271465640516034     
  0.269977547120669       0.268489453725303       0.267001360329937     
  0.265513266934573       0.264025173539208       0.262537080143842     
  0.261048986748476       0.259560893353111       0.258072799957745     
  0.256584706562380       0.255096613167014       0.253608519771649     
  0.252120426376284       0.250632332980918       0.249144239585553     
  0.247656146190187       0.246168052794822       0.244679959399456     
  0.243191866004091       0.241703772608726       0.282935378173528     
  0.281447284778163       0.279959191382798       0.278471097987432     