 Title = "Wing and Wake"
 VARIABLES = "X" "Y" "Z" "GAM"
 Zone I=   26 J=   25 K=1  T="Blade"
 DATAPACKING=BLOCK
 VARLOCATION=([4]=CELLCENTERED)
  2.058733201056454E-002  2.207094866623064E-002  2.355456532189677E-002
  2.503818197756283E-002  2.652179863322893E-002  2.800541528889501E-002
  2.948903194456113E-002  3.097264860022711E-002  3.245626525589328E-002
  3.393988191155942E-002  3.542349856722549E-002  3.690711522289157E-002
  3.839073187855766E-002  3.987434853422381E-002  4.135796518988984E-002
  4.284158184555590E-002  4.432519850122206E-002  4.580881515688818E-002
  4.729243181255418E-002  4.877604846822027E-002  5.025966512388636E-002
  5.174328177955249E-002  5.322689843521852E-002  5.471051509088471E-002
  5.619413174655066E-002  5.767774840221683E-002  2.141460658717149E-002
  2.289822324283762E-002  2.438183989850375E-002  2.586545655416980E-002
  2.734907320983594E-002  2.883268986550200E-002  3.031630652116814E-002
  3.179992317683419E-002  3.328353983250026E-002  3.476715648816633E-002
  3.625077314383244E-002  3.773438979949852E-002  3.921800645516463E-002
  4.070162311083075E-002  4.218523976649675E-002  4.366885642216290E-002
  4.515247307782901E-002  4.663608973349508E-002  4.811970638916124E-002
  4.960332304482733E-002  5.108693970049331E-002  5.257055635615949E-002
  5.405417301182554E-002  5.553778966749165E-002  5.702140632315780E-002
  5.850502297882377E-002  2.388227541962275E-002  2.536589207528878E-002
  2.684950873095494E-002  2.833312538662101E-002  2.981674204228710E-002
  3.130035869795327E-002  3.278397535361930E-002  3.426759200928534E-002
  3.575120866495149E-002  3.723482532061752E-002  3.871844197628359E-002
  4.020205863194976E-002  4.168567528761578E-002  4.316929194328192E-002
  4.465290859894796E-002  4.613652525461404E-002  4.762014191028022E-002
  4.910375856594631E-002  5.058737522161238E-002  5.207099187727847E-002
  5.355460853294453E-002  5.503822518861072E-002  5.652184184427676E-002
  5.800545849994283E-002  5.948907515560888E-002  6.097269181127501E-002
  2.794811601002799E-002  2.943173266569418E-002  3.091534932136021E-002
  3.239896597702616E-002  3.388258263269236E-002  3.536619928835845E-002
  3.684981594402455E-002  3.833343259969064E-002  3.981704925535676E-002
  4.130066591102292E-002  4.278428256668890E-002  4.426789922235511E-002
  4.575151587802104E-002  4.723513253368718E-002  4.871874918935330E-002
  5.020236584501930E-002  5.168598250068547E-002  5.316959915635151E-002
  5.465321581201772E-002  5.613683246768379E-002  5.762044912334971E-002
  5.910406577901591E-002  6.058768243468203E-002  6.207129909034800E-002
  6.355491574601427E-002  6.503853240168023E-002  3.354256069862149E-002
  3.502617735428748E-002  3.650979400995354E-002  3.799341066561963E-002
  3.947702732128577E-002  4.096064397695193E-002  4.244426063261793E-002
  4.392787728828410E-002  4.541149394395005E-002  4.689511059961630E-002
  4.837872725528231E-002  4.986234391094840E-002  5.134596056661449E-002
  5.282957722228051E-002  5.431319387794671E-002  5.579681053361262E-002
  5.728042718927884E-002  5.876404384494494E-002  6.024766050061105E-002
  6.173127715627715E-002  6.321489381194319E-002  6.469851046760930E-002
  6.618212712327541E-002  6.766574377894145E-002  6.914936043460757E-002
  7.063297709027369E-002  4.056988698570805E-002  4.205350364137417E-002
  4.353712029704019E-002  4.502073695270634E-002  4.650435360837229E-002
  4.798797026403849E-002  4.947158691970455E-002  5.095520357537059E-002
  5.243882023103689E-002  5.392243688670276E-002  5.540605354236890E-002
  5.688967019803497E-002  5.837328685370104E-002  5.985690350936718E-002
  6.134052016503323E-002  6.282413682069954E-002  6.430775347636571E-002
  6.579137013203168E-002  6.727498678769764E-002  6.875860344336376E-002
  7.024222009902985E-002  7.172583675469578E-002  7.320945341036203E-002
  7.469307006602811E-002  7.617668672169424E-002  7.766030337736025E-002
  4.890985537017304E-002  5.039347202583903E-002  5.187708868150506E-002
  5.336070533717127E-002  5.484432199283723E-002  5.632793864850348E-002
  5.781155530416955E-002  5.929517195983536E-002  6.077878861550165E-002
  6.226240527116772E-002  6.374602192683387E-002  6.522963858249987E-002
  6.671325523816604E-002  6.819687189383204E-002  6.968048854949833E-002
  7.116410520516445E-002  7.264772186083035E-002  7.413133851649659E-002
  7.561495517216262E-002  7.709857182782859E-002  7.858218848349474E-002
  8.006580513916080E-002  8.154942179482688E-002  8.303303845049305E-002
  8.451665510615924E-002  8.600027176182527E-002  5.841976668068203E-002
  5.990338333634796E-002  6.138699999201398E-002  6.287061664768029E-002
  6.435423330334629E-002  6.583784995901232E-002  6.732146661467851E-002
  6.880508327034451E-002  7.028869992601074E-002  7.177231658167682E-002
  7.325593323734264E-002  7.473954989300911E-002  7.622316654867492E-002
  7.770678320434124E-002  7.919039986000725E-002  8.067401651567326E-002
  8.215763317133949E-002  8.364124982700549E-002  8.512486648267159E-002
  8.660848313833769E-002  8.809209979400379E-002  8.957571644966986E-002
  9.105933310533580E-002  9.254294976100201E-002  9.402656641666807E-002
  9.551018307233425E-002  6.893690369806646E-002  7.042052035373247E-002
  7.190413700939863E-002  7.338775366506481E-002  7.487137032073084E-002
  7.635498697639702E-002  7.783860363206305E-002  7.932222028772908E-002
  8.080583694339506E-002  8.228945359906137E-002  8.377307025472736E-002
  8.525668691039348E-002  8.674030356605941E-002  8.822392022172561E-002
  8.970753687739171E-002  9.119115353305776E-002  9.267477018872392E-002
  9.415838684439004E-002  9.564200350005621E-002  9.712562015572228E-002
  9.860923681138829E-002  0.100092853467054       0.101576470122721     
  0.103060086778387       0.104543703434053       0.106027320089719     
  8.028131529205805E-002  8.176493194772406E-002  8.324854860339033E-002
  8.473216525905639E-002  8.621578191472228E-002  8.769939857038839E-002
  8.918301522605449E-002  9.066663188172067E-002  9.215024853738679E-002
  9.363386519305296E-002  9.511748184871893E-002  9.660109850438502E-002
  9.808471516005109E-002  9.956833181571724E-002  0.101051948471383     
  0.102535565127049       0.104019181782716       0.105502798438382     
  0.106986415094048       0.108470031749714       0.109953648405380     
  0.111437265061046       0.112920881716712       0.114404498372378     
  0.115888115028044       0.117371731683710       9.225889543501811E-002
  9.374251209068428E-002  9.522612874635028E-002  9.670974540201625E-002
  9.819336205768270E-002  9.967697871334856E-002  0.101160595369015     
  0.102644212024681       0.104127828680347       0.105611445336013     
  0.107095061991679       0.108578678647345       0.110062295303011     
  0.111545911958677       0.113029528614344       0.114513145270010     
  0.115996761925676       0.117480378581342       0.118963995237008     
  0.120447611892674       0.121931228548340       0.123414845204006     
  0.124898461859672       0.126382078515338       0.127865695171004     
  0.129349311826670       0.104664704409888       0.106148321065555     
  0.107631937721221       0.109115554376887       0.110599171032553     
  0.112082787688219       0.113566404343885       0.115050020999551     
  0.116533637655217       0.118017254310883       0.119500870966549     
  0.120984487622215       0.122468104277881       0.123951720933548     
  0.125435337589214       0.126918954244880       0.128402570900546     
  0.129886187556212       0.131369804211878       0.132853420867544     
  0.134337037523210       0.135820654178876       0.137304270834542     
  0.138787887490208       0.140271504145874       0.141755120801541     
  0.117286475385568       0.118770092041234       0.120253708696901     
  0.121737325352567       0.123220942008233       0.124704558663899     
  0.126188175319565       0.127671791975231       0.129155408630897     
  0.130639025286563       0.132122641942229       0.133606258597896     
  0.135089875253561       0.136573491909228       0.138057108564894     
  0.139540725220560       0.141024341876226       0.142507958531892     
  0.143991575187558       0.145475191843224       0.146958808498890     
  0.148442425154556       0.149926041810222       0.151409658465889     
  0.152893275121555       0.154376891777221       0.129908246361249     
  0.131391863016914       0.132875479672581       0.134359096328247     
  0.135842712983913       0.137326329639579       0.138809946295245     
  0.140293562950911       0.141777179606577       0.143260796262244     
  0.144744412917909       0.146228029573576       0.147711646229241     
  0.149195262884908       0.150678879540574       0.152162496196240     
  0.153646112851906       0.155129729507572       0.156613346163238     
  0.158096962818904       0.159580579474570       0.161064196130236     
  0.162547812785903       0.164031429441568       0.165515046097234     
  0.166998662752901       0.142314055336119       0.143797671991785     
  0.145281288647451       0.146764905303117       0.148248521958783     
  0.149732138614449       0.151215755270115       0.152699371925781     
  0.154182988581448       0.155666605237114       0.157150221892780     
  0.158633838548446       0.160117455204112       0.161601071859778     
  0.163084688515444       0.164568305171110       0.166051921826776     
  0.167535538482442       0.169019155138108       0.170502771793774     
  0.171986388449440       0.173470005105107       0.174953621760773     
  0.176437238416439       0.177920855072105       0.179404471727771     
  0.154291635479079       0.155775252134745       0.157258868790411     
  0.158742485446077       0.160226102101743       0.161709718757409     
  0.163193335413076       0.164676952068742       0.166160568724408     
  0.167644185380074       0.169127802035740       0.170611418691406     
  0.172095035347072       0.173578652002738       0.175062268658404     
  0.176545885314070       0.178029501969737       0.179513118625402     
  0.180996735281069       0.182480351936734       0.183963968592400     
  0.185447585248066       0.186931201903733       0.188414818559399     
  0.189898435215065       0.191382051870731       0.165636047073070     
  0.167119663728737       0.168603280384402       0.170086897040068     
  0.171570513695735       0.173054130351401       0.174537747007067     
  0.176021363662733       0.177504980318399       0.178988596974065     
  0.180472213629731       0.181955830285397       0.183439446941063     
  0.184923063596730       0.186406680252396       0.187890296908062     
  0.189373913563728       0.190857530219394       0.192341146875060     
  0.193824763530726       0.195308380186392       0.196791996842058     
  0.198275613497724       0.199759230153390       0.201242846809057     
  0.202726463464722       0.176153184090455       0.177636800746121     
  0.179120417401787       0.180604034057453       0.182087650713119     
  0.183571267368785       0.185054884024452       0.186538500680117     
  0.188022117335784       0.189505733991450       0.190989350647116     
  0.192472967302782       0.193956583958448       0.195440200614114     
  0.196923817269780       0.198407433925446       0.199891050581113     
  0.201374667236779       0.202858283892445       0.204341900548111     
  0.205825517203777       0.207309133859443       0.208792750515109     
  0.210276367170775       0.211759983826441       0.213243600482107     
  0.185663095400964       0.187146712056630       0.188630328712296     
  0.190113945367962       0.191597562023628       0.193081178679295     
  0.194564795334960       0.196048411990626       0.197532028646293     
  0.199015645301959       0.200499261957625       0.201982878613291     
  0.203466495268957       0.204950111924623       0.206433728580289     
  0.207917345235956       0.209400961891622       0.210884578547288     
  0.212368195202954       0.213851811858620       0.215335428514286     
  0.216819045169952       0.218302661825618       0.219786278481284     
  0.221269895136950       0.222753511792616       0.194003063785429     
  0.195486680441095       0.196970297096761       0.198453913752427     
  0.199937530408093       0.201421147063760       0.202904763719425     
  0.204388380375091       0.205871997030758       0.207355613686424     
  0.208839230342090       0.210322846997756       0.211806463653422     
  0.213290080309088       0.214773696964754       0.216257313620420     
  0.217740930276086       0.219224546931752       0.220708163587418     
  0.222191780243085       0.223675396898751       0.225159013554416     
  0.226642630210083       0.228126246865749       0.229609863521415     
  0.231093480177081       0.201030390072516       0.202514006728181     
  0.203997623383848       0.205481240039514       0.206964856695180     
  0.208448473350846       0.209932090006512       0.211415706662178     
  0.212899323317844       0.214382939973510       0.215866556629177     
  0.217350173284842       0.218833789940508       0.220317406596175     
  0.221801023251841       0.223284639907507       0.224768256563173     
  0.226251873218839       0.227735489874505       0.229219106530171     
  0.230702723185838       0.232186339841503       0.233669956497169     
  0.235153573152835       0.236637189808502       0.238120806464168     
  0.206624834761109       0.208108451416775       0.209592068072441     
  0.211075684728107       0.212559301383773       0.214042918039439     
  0.215526534695106       0.217010151350772       0.218493768006438     
  0.219977384662104       0.221461001317770       0.222944617973436     
  0.224428234629102       0.225911851284768       0.227395467940434     
  0.228879084596100       0.230362701251766       0.231846317907432     
  0.233329934563098       0.234813551218765       0.236297167874431     
  0.237780784530097       0.239264401185763       0.240748017841429     
  0.242231634497095       0.243715251152761       0.210690675351515     
  0.212174292007180       0.213657908662846       0.215141525318512     
  0.216625141974178       0.218108758629845       0.219592375285511     
  0.221075991941177       0.222559608596842       0.224043225252509     
  0.225526841908175       0.227010458563841       0.228494075219507     
  0.229977691875173       0.231461308530839       0.232944925186505     
  0.234428541842172       0.235912158497838       0.237395775153504     
  0.238879391809170       0.240363008464836       0.241846625120502     
  0.243330241776168       0.244813858431834       0.246297475087500     
  0.247781091743166       0.213158344183966       0.214641960839632     
  0.216125577495298       0.217609194150964       0.219092810806630     
  0.220576427462296       0.222060044117962       0.223543660773628     
  0.225027277429294       0.226510894084960       0.227994510740626     
  0.229478127396292       0.230961744051959       0.232445360707625     
  0.233928977363291       0.235412594018957       0.236896210674623     
  0.238379827330289       0.239863443985955       0.241347060641621     
  0.242830677297287       0.244314293952953       0.245797910608619     
  0.247281527264286       0.248765143919952       0.250248760575618     
  0.213985618760572       0.215469235416238       0.216952852071905     
  0.218436468727571       0.219920085383236       0.221403702038903     
  0.222887318694569       0.224370935350235       0.225854552005901     
  0.227338168661567       0.228821785317233       0.230305401972899     
  0.231789018628565       0.233272635284231       0.234756251939898     
  0.236239868595563       0.237723485251230       0.239207101906896     
  0.240690718562562       0.242174335218228       0.243657951873894     
  0.245141568529560       0.246625185185226       0.248108801840893     
  0.249592418496558       0.251076035152225     
  0.121037852594495       0.120175944161822       0.119314035729149     
  0.118452127296477       0.117590218863804       0.116728310431131     
  0.115866401998458       0.115004493565785       0.114142585133112     
  0.113280676700439       0.112418768267766       0.111556859835093     
  0.110694951402420       0.109833042969747       0.108971134537074     
  0.108109226104402       0.107247317671729       0.106385409239056     
  0.105523500806383       0.104661592373710       0.103799683941037     
  0.102937775508364       0.102075867075691       0.101213958643018     
  0.100352050210345       9.949014177767229E-002  0.122461853444397     
  0.121599945011724       0.120738036579051       0.119876128146378     
  0.119014219713705       0.118152311281032       0.117290402848359     
  0.116428494415686       0.115566585983013       0.114704677550340     
  0.113842769117667       0.112980860684994       0.112118952252321     
  0.111257043819648       0.110395135386975       0.109533226954303     
  0.108671318521630       0.107809410088957       0.106947501656284     
  0.106085593223611       0.105223684790938       0.104361776358265     
  0.103499867925592       0.102637959492919       0.101776051060246     
  0.100914142627573       0.126709490944750       0.125847582512077     
  0.124985674079405       0.124123765646731       0.123261857214059     
  0.122399948781386       0.121538040348713       0.120676131916040     
  0.119814223483367       0.118952315050694       0.118090406618021     
  0.117228498185348       0.116366589752675       0.115504681320002     
  0.114642772887329       0.113780864454656       0.112918956021983     
  0.112057047589311       0.111195139156638       0.110333230723965     
  0.109471322291292       0.108609413858619       0.107747505425946     
  0.106885596993273       0.106023688560600       0.105161780127927     
  0.133708086840258       0.132846178407585       0.131984269974913     
  0.131122361542240       0.130260453109567       0.129398544676894     
  0.128536636244221       0.127674727811548       0.126812819378875     
  0.125950910946202       0.125089002513529       0.124227094080856     
  0.123365185648183       0.122503277215510       0.121641368782838     
  0.120779460350164       0.119917551917492       0.119055643484819     
  0.118193735052146       0.117331826619473       0.116469918186800     
  0.115608009754127       0.114746101321454       0.113884192888781     
  0.113022284456108       0.112160376023435       0.143337893214771     
  0.142475984782098       0.141614076349425       0.140752167916752     
  0.139890259484079       0.139028351051406       0.138166442618733     
  0.137304534186061       0.136442625753387       0.135580717320715     
  0.134718808888042       0.133856900455369       0.132994992022696     
  0.132133083590023       0.131271175157350       0.130409266724677     
  0.129547358292004       0.128685449859331       0.127823541426658     
  0.126961632993985       0.126099724561312       0.125237816128639     
  0.124375907695967       0.123513999263294       0.122652090830621     
  0.121790182397948       0.155434141411333       0.154572232978660     
  0.153710324545987       0.152848416113315       0.151986507680642     
  0.151124599247969       0.150262690815296       0.149400782382623     
  0.148538873949950       0.147676965517277       0.146815057084604     
  0.145953148651931       0.145091240219258       0.144229331786585     
  0.143367423353912       0.142505514921240       0.141643606488567     
  0.140781698055894       0.139919789623221       0.139057881190548     
  0.138195972757875       0.137334064325202       0.136472155892529     
  0.135610247459856       0.134748339027183       0.133886430594510     
  0.169789861269589       0.168927952836916       0.168066044404243     
  0.167204135971570       0.166342227538897       0.165480319106225     
  0.164618410673552       0.163756502240879       0.162894593808206     
  0.162032685375533       0.161170776942860       0.160308868510187     
  0.159446960077514       0.158585051644841       0.157723143212168     
  0.156861234779495       0.155999326346823       0.155137417914150     
  0.154275509481477       0.153413601048803       0.152551692616131     
  0.151689784183458       0.150827875750785       0.149965967318112     
  0.149104058885439       0.148242150452766       0.186159422442606     
  0.185297514009933       0.184435605577260       0.183573697144587     
  0.182711788711914       0.181849880279241       0.180987971846568     
  0.180126063413896       0.179264154981223       0.178402246548550     
  0.177540338115877       0.176678429683204       0.175816521250531     
  0.174954612817858       0.174092704385185       0.173230795952512     
  0.172368887519840       0.171506979087166       0.170645070654493     
  0.169783162221820       0.168921253789148       0.168059345356475     
  0.167197436923802       0.166335528491129       0.165473620058456     
  0.164611711625783       0.204262737200213       0.203400828767541     
  0.202538920334867       0.201677011902195       0.200815103469522     
  0.199953195036849       0.199091286604176       0.198229378171503     
  0.197367469738830       0.196505561306157       0.195643652873484     
  0.194781744440811       0.193919836008138       0.193057927575465     
  0.192196019142792       0.191334110710120       0.190472202277447     
  0.189610293844774       0.188748385412101       0.187886476979428     
  0.187024568546755       0.186162660114082       0.185300751681409     
  0.184438843248736       0.183576934816063       0.182715026383390     
  0.223790052807722       0.222928144375049       0.222066235942376     
  0.221204327509704       0.220342419077030       0.219480510644358     
  0.218618602211685       0.217756693779012       0.216894785346339     
  0.216032876913666       0.215170968480993       0.214309060048320     
  0.213447151615647       0.212585243182974       0.211723334750301     
  0.210861426317628       0.209999517884955       0.209137609452283     
  0.208275701019610       0.207413792586937       0.206551884154264     
  0.205689975721591       0.204828067288918       0.203966158856245     
  0.203104250423572       0.202242341990899       0.244407251481093     
  0.243545343048420       0.242683434615747       0.241821526183074     
  0.240959617750401       0.240097709317728       0.239235800885055     
  0.238373892452382       0.237511984019709       0.236650075587036     
  0.235788167154364       0.234926258721690       0.234064350289017     
  0.233202441856345       0.232340533423672       0.231478624990999     
  0.230616716558326       0.229754808125653       0.228892899692980     
  0.228030991260307       0.227169082827634       0.226307174394961     
  0.225445265962289       0.224583357529616       0.223721449096943     
  0.222859540664270       0.265761567234857       0.264899658802184     
  0.264037750369511       0.263175841936838       0.262313933504165     
  0.261452025071492       0.260590116638819       0.259728208206146     
  0.258866299773473       0.258004391340800       0.257142482908127     
  0.256280574475454       0.255418666042781       0.254556757610109     
  0.253694849177436       0.252832940744763       0.251971032312090     
  0.251109123879417       0.250247215446744       0.249385307014071     
  0.248523398581398       0.247661490148725       0.246799581716052     
  0.245937673283379       0.245075764850706       0.244213856418033     
  0.287487621805932       0.286625713373259       0.285763804940586     
  0.284901896507913       0.284039988075240       0.283178079642567     
  0.282316171209894       0.281454262777222       0.280592354344548     
  0.279730445911875       0.278868537479203       0.278006629046530     
  0.277144720613857       0.276282812181184       0.275420903748511     
  0.274558995315838       0.273697086883165       0.272835178450492     
  0.271973270017819       0.271111361585146       0.270249453152473     
  0.269387544719800       0.268525636287128       0.267663727854454     
  0.266801819421782       0.265939910989109       0.309213676377007     
  0.308351767944334       0.307489859511661       0.306627951078988     
  0.305766042646315       0.304904134213642       0.304042225780969     
  0.303180317348296       0.302318408915624       0.301456500482951     
  0.300594592050277       0.299732683617605       0.298870775184932     
  0.298008866752259       0.297146958319586       0.296285049886913     
  0.295423141454240       0.294561233021567       0.293699324588894     
  0.292837416156221       0.291975507723548       0.291113599290875     
  0.290251690858203       0.289389782425530       0.288527873992856     
  0.287665965560184       0.330567992130771       0.329706083698098     
  0.328844175265425       0.327982266832752       0.327120358400079     
  0.326258449967406       0.325396541534733       0.324534633102060     
  0.323672724669388       0.322810816236714       0.321948907804041     
  0.321086999371368       0.320225090938696       0.319363182506023     
  0.318501274073350       0.317639365640677       0.316777457208004     
  0.315915548775331       0.315053640342658       0.314191731909985     
  0.313329823477312       0.312467915044639       0.311606006611966     
  0.310744098179294       0.309882189746621       0.309020281313948     
  0.351185190804141       0.350323282371468       0.349461373938796     
  0.348599465506122       0.347737557073450       0.346875648640777     
  0.346013740208103       0.345151831775431       0.344289923342758     
  0.343428014910085       0.342566106477412       0.341704198044739     
  0.340842289612066       0.339980381179393       0.339118472746720     
  0.338256564314047       0.337394655881375       0.336532747448702     
  0.335670839016029       0.334808930583355       0.333947022150682     
  0.333085113718010       0.332223205285337       0.331361296852664     
  0.330499388419991       0.329637479987319       0.370712506411650     
  0.369850597978977       0.368988689546304       0.368126781113631     
  0.367264872680958       0.366402964248285       0.365541055815612     
  0.364679147382939       0.363817238950267       0.362955330517593     
  0.362093422084921       0.361231513652248       0.360369605219574     
  0.359507696786901       0.358645788354229       0.357783879921556     
  0.356921971488883       0.356060063056210       0.355198154623537     
  0.354336246190864       0.353474337758191       0.352612429325519     
  0.351750520892845       0.350888612460172       0.350026704027500     
  0.349164795594827       0.388815821169257       0.387953912736585     
  0.387092004303912       0.386230095871239       0.385368187438566     
  0.384506279005893       0.383644370573220       0.382782462140547     
  0.381920553707874       0.381058645275201       0.380196736842528     
  0.379334828409855       0.378472919977183       0.377611011544509     
  0.376749103111837       0.375887194679163       0.375025286246491     
  0.374163377813818       0.373301469381145       0.372439560948472     
  0.371577652515799       0.370715744083126       0.369853835650454     
  0.368991927217780       0.368130018785107       0.367268110352435     
  0.405185382342274       0.404323473909601       0.403461565476928     
  0.402599657044256       0.401737748611583       0.400875840178910     
  0.400013931746236       0.399152023313564       0.398290114880891     
  0.397428206448218       0.396566298015545       0.395704389582872     
  0.394842481150199       0.393980572717526       0.393118664284853     
  0.392256755852181       0.391394847419508       0.390532938986835     
  0.389671030554162       0.388809122121489       0.387947213688816     
  0.387085305256143       0.386223396823470       0.385361488390797     
  0.384499579958124       0.383637671525451       0.419541102200530     
  0.418679193767857       0.417817285335184       0.416955376902511     
  0.416093468469838       0.415231560037165       0.414369651604492     
  0.413507743171819       0.412645834739147       0.411783926306474     
  0.410922017873800       0.410060109441128       0.409198201008455     
  0.408336292575782       0.407474384143109       0.406612475710436     
  0.405750567277763       0.404888658845090       0.404026750412417     
  0.403164841979745       0.402302933547071       0.401441025114398     
  0.400579116681726       0.399717208249052       0.398855299816380     
  0.397993391383707       0.431637350397092       0.430775441964420     
  0.429913533531747       0.429051625099074       0.428189716666401     
  0.427327808233728       0.426465899801055       0.425603991368382     
  0.424742082935709       0.423880174503036       0.423018266070364     
  0.422156357637690       0.421294449205018       0.420432540772345     
  0.419570632339672       0.418708723906998       0.417846815474326     
  0.416984907041653       0.416122998608980       0.415261090176307     
  0.414399181743634       0.413537273310961       0.412675364878288     
  0.411813456445615       0.410951548012942       0.410089639580270     
  0.441267156771605       0.440405248338932       0.439543339906259     
  0.438681431473586       0.437819523040914       0.436957614608241     
  0.436095706175567       0.435233797742895       0.434371889310222     
  0.433509980877549       0.432648072444876       0.431786164012203     
  0.430924255579530       0.430062347146857       0.429200438714185     
  0.428338530281511       0.427476621848838       0.426614713416165     
  0.425752804983493       0.424890896550819       0.424028988118147     
  0.423167079685474       0.422305171252801       0.421443262820128     
  0.420581354387455       0.419719445954782       0.448265752667113     
  0.447403844234440       0.446541935801768       0.445680027369095     