 Title = "Wing and Wake"
 VARIABLES = "X" "Y" "Z" "GAM"
 Zone I=   26 J=   25 K=1  T="Blade"
 DATAPACKING=BLOCK
 VARLOCATION=([4]=CELLCENTERED)
  5.120624733422773E-002  5.241630341083382E-002  5.362635948743987E-002
  5.483641556404590E-002  5.604647164065191E-002  5.725652771725786E-002
  5.846658379386394E-002  5.967663987046978E-002  6.088669594707584E-002
  6.209675202368203E-002  6.330680810028795E-002  6.451686417689395E-002
  6.572692025350003E-002  6.693697633010599E-002  6.814703240671204E-002
  6.935708848331794E-002  7.056714455992411E-002  7.177720063653020E-002
  7.298725671313604E-002  7.419731278974209E-002  7.540736886634811E-002
  7.661742494295418E-002  7.782748101956002E-002  7.903753709616618E-002
  8.024759317277209E-002  8.145764924937815E-002  5.237382420751854E-002
  5.358388028412453E-002  5.479393636073059E-002  5.600399243733658E-002
  5.721404851394270E-002  5.842410459054859E-002  5.963416066715466E-002
  6.084421674376066E-002  6.205427282036662E-002  6.326432889697270E-002
  6.447438497357866E-002  6.568444105018473E-002  6.689449712679070E-002
  6.810455320339674E-002  6.931460928000263E-002  7.052466535660883E-002
  7.173472143321478E-002  7.294477750982072E-002  7.415483358642690E-002
  7.536488966303281E-002  7.657494573963883E-002  7.778500181624491E-002
  7.899505789285091E-002  8.020511396945694E-002  8.141517004606300E-002
  8.262522612266886E-002  5.585657726337518E-002  5.706663333998111E-002
  5.827668941658724E-002  5.948674549319322E-002  6.069680156979912E-002
  6.190685764640533E-002  6.311691372301120E-002  6.432696979961715E-002
  6.553702587622330E-002  6.674708195282923E-002  6.795713802943512E-002
  6.916719410604130E-002  7.037725018264725E-002  7.158730625925325E-002
  7.279736233585928E-002  7.400741841246526E-002  7.521747448907141E-002
  7.642753056567740E-002  7.763758664228340E-002  7.884764271888942E-002
  8.005769879549544E-002  8.126775487210142E-002  8.247781094870744E-002
  8.368786702531340E-002  8.489792310191939E-002  8.610797917852556E-002
  6.159491563141047E-002  6.280497170801660E-002  6.401502778462255E-002
  6.522508386122844E-002  6.643513993783452E-002  6.764519601444048E-002
  6.885525209104650E-002  7.006530816765252E-002  7.127536424425857E-002
  7.248542032086465E-002  7.369547639747058E-002  7.490553247407668E-002
  7.611558855068259E-002  7.732564462728865E-002  7.853570070389482E-002
  7.974575678050060E-002  8.095581285710676E-002  8.216586893371264E-002
  8.337592501031890E-002  8.458598108692483E-002  8.579603716353064E-002
  8.700609324013669E-002  8.821614931674279E-002  8.942620539334865E-002
  9.063626146995483E-002  9.184631754656075E-002  6.949065475117948E-002
  7.070071082778537E-002  7.191076690439134E-002  7.312082298099741E-002
  7.433087905760341E-002  7.554093513420948E-002  7.675099121081537E-002
  7.796104728742145E-002  7.917110336402730E-002  8.038115944063351E-002
  8.159121551723940E-002  8.280127159384562E-002  8.401132767045139E-002
  8.522138374705743E-002  8.643143982366362E-002  8.764149590026932E-002
  8.885155197687543E-002  9.006160805348153E-002  9.127166413008760E-002
  9.248172020669376E-002  9.369177628329960E-002  9.490183235990557E-002
  9.611188843651157E-002  9.732194451311756E-002  9.853200058972360E-002
  9.974205666632975E-002  7.940869633723008E-002  8.061875241383605E-002
  8.182880849044208E-002  8.303886456704811E-002  8.424892064365401E-002
  8.545897672026005E-002  8.666903279686609E-002  8.787908887347214E-002
  8.908914495007823E-002  9.029920102668411E-002  9.150925710329015E-002
  9.271931317989615E-002  9.392936925650222E-002  9.513942533310819E-002
  9.634948140971426E-002  9.755953748632036E-002  9.876959356292649E-002
  9.997964963953238E-002  0.101189705716138       0.102399761792744     
  0.103609817869350       0.104819873945956       0.106029930022562     
  0.107239986099168       0.108450042175774       0.109660098252380     
  9.117933994822483E-002  9.238939602483069E-002  9.359945210143662E-002
  9.480950817804279E-002  9.601956425464872E-002  9.722962033125494E-002
  9.843967640786104E-002  9.964973248446654E-002  0.100859788561073     
  0.102069844637679       0.103279900714285       0.104489956790891     
  0.105700012867497       0.106910068944103       0.108120125020709     
  0.109330181097315       0.110540237173921       0.111750293250527     
  0.112960349327133       0.114170405403739       0.115380461480345     
  0.116590517556951       0.117800573633557       0.119010629710163     
  0.120220685786769       0.121430741863375       0.104601186608540     
  0.105811242685146       0.107021298761752       0.108231354838358     
  0.109441410914964       0.110651466991570       0.111861523068177     
  0.113071579144782       0.114281635221389       0.115491691297995     
  0.116701747374600       0.117911803451207       0.119121859527812     
  0.120331915604419       0.121541971681025       0.122752027757630     
  0.123962083834237       0.125172139910843       0.126382195987449     
  0.127592252064055       0.128802308140661       0.130012364217267     
  0.131222420293873       0.132432476370479       0.133642532447085     
  0.134852588523691       0.119444584800580       0.120654640877186     
  0.121864696953792       0.123074753030398       0.124284809107004     
  0.125494865183610       0.126704921260216       0.127914977336822     
  0.129125033413428       0.130335089490034       0.131545145566640     
  0.132755201643246       0.133965257719852       0.135175313796458     
  0.136385369873064       0.137595425949670       0.138805482026276     
  0.140015538102882       0.141225594179488       0.142435650256094     
  0.143645706332700       0.144855762409306       0.146065818485912     
  0.147275874562518       0.148485930639124       0.149695986715730     
  0.135455559865910       0.136665615942516       0.137875672019122     
  0.139085728095728       0.140295784172334       0.141505840248940     
  0.142715896325546       0.143925952402152       0.145136008478758     
  0.146346064555365       0.147556120631970       0.148766176708576     
  0.149976232785182       0.151186288861788       0.152396344938394     
  0.153606401015000       0.154816457091606       0.156026513168212     
  0.157236569244818       0.158446625321424       0.159656681398031     
  0.160866737474637       0.162076793551243       0.163286849627848     
  0.164496905704454       0.165706961781060       0.152360159582082     
  0.153570215658689       0.154780271735294       0.155990327811900     
  0.157200383888507       0.158410439965112       0.159620496041718     
  0.160830552118325       0.162040608194931       0.163250664271537     
  0.164460720348143       0.165670776424748       0.166880832501355     
  0.168090888577961       0.169300944654567       0.170511000731173     
  0.171721056807779       0.172931112884385       0.174141168960991     
  0.175351225037597       0.176561281114202       0.177771337190809     
  0.178981393267415       0.180191449344021       0.181401505420627     
  0.182611561497233       0.169869141561113       0.171079197637719     
  0.172289253714324       0.173499309790930       0.174709365867537     
  0.175919421944143       0.177129478020749       0.178339534097355     
  0.179549590173960       0.180759646250567       0.181969702327173     
  0.183179758403779       0.184389814480385       0.185599870556991     
  0.186809926633597       0.188019982710203       0.189230038786809     
  0.190440094863415       0.191650150940021       0.192860207016627     
  0.194070263093233       0.195280319169839       0.196490375246445     
  0.197700431323050       0.198910487399656       0.200120543476263     
  0.187682922266932       0.188892978343538       0.190103034420144     
  0.191313090496750       0.192523146573356       0.193733202649962     
  0.194943258726568       0.196153314803174       0.197363370879780     
  0.198573426956386       0.199783483032992       0.200993539109598     
  0.202203595186204       0.203413651262810       0.204623707339416     
  0.205833763416023       0.207043819492629       0.208253875569234     
  0.209463931645841       0.210673987722446       0.211884043799052     
  0.213094099875658       0.214304155952265       0.215514212028870     
  0.216724268105476       0.217934324182082       0.205496702972752     
  0.206706759049358       0.207916815125964       0.209126871202570     
  0.210336927279176       0.211546983355782       0.212757039432388     
  0.213967095508994       0.215177151585600       0.216387207662206     
  0.217597263738812       0.218807319815418       0.220017375892024     
  0.221227431968630       0.222437488045236       0.223647544121842     
  0.224857600198449       0.226067656275054       0.227277712351660     
  0.228487768428266       0.229697824504872       0.230907880581478     
  0.232117936658084       0.233327992734690       0.234538048811296     
  0.235748104887902       0.223005684951782       0.224215741028388     
  0.225425797104993       0.226635853181600       0.227845909258206     
  0.229055965334812       0.230266021411418       0.231476077488024     
  0.232686133564630       0.233896189641237       0.235106245717842     
  0.236316301794448       0.237526357871054       0.238736413947660     
  0.239946470024266       0.241156526100872       0.242366582177478     
  0.243576638254084       0.244786694330690       0.245996750407296     
  0.247206806483902       0.248416862560508       0.249626918637114     
  0.250836974713720       0.252047030790326       0.253257086866932     
  0.239910284667954       0.241120340744560       0.242330396821166     
  0.243540452897772       0.244750508974378       0.245960565050984     
  0.247170621127590       0.248380677204196       0.249590733280802     
  0.250800789357408       0.252010845434014       0.253220901510620     
  0.254430957587226       0.255641013663832       0.256851069740438     
  0.258061125817044       0.259271181893651       0.260481237970256     
  0.261691294046862       0.262901350123468       0.264111406200074     
  0.265321462276680       0.266531518353287       0.267741574429892     
  0.268951630506499       0.270161686583105       0.255921259733284     
  0.257131315809890       0.258341371886496       0.259551427963102     
  0.260761484039708       0.261971540116315       0.263181596192920     
  0.264391652269526       0.265601708346133       0.266811764422738     
  0.268021820499344       0.269231876575951       0.270441932652556     
  0.271651988729162       0.272862044805768       0.274072100882374     
  0.275282156958981       0.276492213035587       0.277702269112193     
  0.278912325188798       0.280122381265404       0.281332437342011     
  0.282542493418616       0.283752549495222       0.284962605571829     
  0.286172661648434       0.270764657925324       0.271974714001930     
  0.273184770078536       0.274394826155142       0.275604882231748     
  0.276814938308354       0.278024994384960       0.279235050461566     
  0.280445106538172       0.281655162614778       0.282865218691384     
  0.284075274767990       0.285285330844596       0.286495386921202     
  0.287705442997808       0.288915499074414       0.290125555151020     
  0.291335611227626       0.292545667304232       0.293755723380838     
  0.294965779457444       0.296175835534050       0.297385891610656     
  0.298595947687262       0.299806003763868       0.301016059840474     
  0.284186504585639       0.285396560662245       0.286606616738852     
  0.287816672815458       0.289026728892064       0.290236784968670     
  0.291446841045275       0.292656897121881       0.293866953198488     
  0.295077009275094       0.296287065351700       0.297497121428306     
  0.298707177504912       0.299917233581517       0.301127289658124     
  0.302337345734730       0.303547401811336       0.304757457887941     
  0.305967513964548       0.307177570041154       0.308387626117759     
  0.309597682194366       0.310807738270971       0.312017794347578     
  0.313227850424184       0.314437906500790       0.295957148196635     
  0.297167204273240       0.298377260349846       0.299587316426452     
  0.300797372503058       0.302007428579664       0.303217484656270     
  0.304427540732876       0.305637596809483       0.306847652886088     
  0.308057708962694       0.309267765039300       0.310477821115906     
  0.311687877192512       0.312897933269118       0.314107989345724     
  0.315318045422330       0.316528101498936       0.317738157575543     
  0.318948213652148       0.320158269728754       0.321368325805360     
  0.322578381881966       0.323788437958572       0.324998494035179     
  0.326208550111784       0.305875189782685       0.307085245859291     
  0.308295301935897       0.309505358012503       0.310715414089109     
  0.311925470165715       0.313135526242321       0.314345582318927     
  0.315555638395533       0.316765694472139       0.317975750548746     
  0.319185806625351       0.320395862701957       0.321605918778563     
  0.322815974855169       0.324026030931775       0.325236087008381     
  0.326446143084987       0.327656199161593       0.328866255238199     
  0.330076311314806       0.331286367391411       0.332496423468017     
  0.333706479544623       0.334916535621229       0.336126591697835     
  0.313770928902454       0.314980984979060       0.316191041055666     
  0.317401097132272       0.318611153208878       0.319821209285484     
  0.321031265362090       0.322241321438696       0.323451377515302     
  0.324661433591908       0.325871489668514       0.327081545745120     
  0.328291601821726       0.329501657898332       0.330711713974938     
  0.331921770051543       0.333131826128150       0.334341882204756     
  0.335551938281362       0.336761994357968       0.337972050434575     
  0.339182106511180       0.340392162587786       0.341602218664392     
  0.342812274740998       0.344022330817604       0.319509267270490     
  0.320719323347095       0.321929379423701       0.323139435500307     
  0.324349491576913       0.325559547653519       0.326769603730125     
  0.327979659806732       0.329189715883337       0.330399771959943     
  0.331609828036549       0.332819884113156       0.334029940189762     
  0.335239996266367       0.336450052342973       0.337660108419579     
  0.338870164496185       0.340080220572791       0.341290276649398     
  0.342500332726004       0.343710388802609       0.344920444879216     
  0.346130500955821       0.347340557032427       0.348550613109034     
  0.349760669185640       0.322992020326346       0.324202076402952     
  0.325412132479558       0.326622188556164       0.327832244632770     
  0.329042300709376       0.330252356785982       0.331462412862588     
  0.332672468939194       0.333882525015800       0.335092581092406     
  0.336302637169012       0.337512693245618       0.338722749322224     
  0.339932805398830       0.341142861475436       0.342352917552042     
  0.343562973628648       0.344773029705254       0.345983085781859     
  0.347193141858466       0.348403197935072       0.349613254011678     
  0.350823310088284       0.352033366164890       0.353243422241496     
  0.324159597199636       0.325369653276242       0.326579709352849     
  0.327789765429455       0.328999821506060       0.330209877582667     
  0.331419933659273       0.332629989735879       0.333840045812485     
  0.335050101889091       0.336260157965697       0.337470214042303     
  0.338680270118909       0.339890326195515       0.341100382272121     
  0.342310438348726       0.343520494425332       0.344730550501939     
  0.345940606578545       0.347150662655151       0.348360718731757     
  0.349570774808363       0.350780830884969       0.351990886961575     
  0.353200943038180       0.354410999114787     
  0.111588172464405       0.110371714976964       0.109155257489523     
  0.107938800002082       0.106722342514641       0.105505885027200     
  0.104289427539759       0.103072970052318       0.101856512564877     
  0.100640055077436       9.942359758999499E-002  9.820714010255382E-002
  9.699068261511287E-002  9.577422512767160E-002  9.455776764023079E-002
  9.334131015278969E-002  9.212485266534866E-002  9.090839517790762E-002
  8.969193769046650E-002  8.847548020302547E-002  8.725902271558451E-002
  8.604256522814339E-002  8.482610774070229E-002  8.360965025326121E-002
  8.239319276582022E-002  8.117673527837921E-002  0.112749605153189     
  0.111533147665748       0.110316690178307       0.109100232690866     
  0.107883775203425       0.106667317715984       0.105450860228543     
  0.104234402741102       0.103017945253661       0.101801487766220     
  0.100585030278779       9.936857279133787E-002  9.815211530389691E-002
  9.693565781645576E-002  9.571920032901461E-002  9.450274284157378E-002
  9.328628535413262E-002  9.206982786669150E-002  9.085337037925052E-002
  8.963691289180943E-002  8.842045540436848E-002  8.720399791692736E-002
  8.598754042948638E-002  8.477108294204526E-002  8.355462545460428E-002
  8.233816796716315E-002  0.116214030784226       0.114997573296785     
  0.113781115809344       0.112564658321903       0.111348200834462     
  0.110131743347021       0.108915285859580       0.107698828372139     
  0.106482370884698       0.105265913397257       0.104049455909816     
  0.102832998422375       0.101616540934934       0.100400083447493     
  9.918362596005151E-002  9.796716847261039E-002  9.675071098516945E-002
  9.553425349772832E-002  9.431779601028731E-002  9.310133852284624E-002
  9.188488103540528E-002  9.066842354796407E-002  8.945196606052315E-002
  8.823550857308202E-002  8.701905108564097E-002  8.580259359819999E-002
  0.121922172074449       0.120705714587008       0.119489257099567     
  0.118272799612126       0.117056342124685       0.115839884637243     
  0.114623427149802       0.113406969662361       0.112190512174920     
  0.110974054687479       0.109757597200038       0.108541139712597     
  0.107324682225156       0.106108224737715       0.104891767250274     
  0.103675309762833       0.102458852275392       0.101242394787951     
  0.100025937300510       9.880947981306876E-002  9.759302232562761E-002
  9.637656483818657E-002  9.516010735074561E-002  9.394364986330445E-002
  9.272719237586351E-002  9.151073488842243E-002  0.129776361143785     
  0.128559903656344       0.127343446168903       0.126126988681462     
  0.124910531194021       0.123694073706580       0.122477616219139     
  0.121261158731698       0.120044701244257       0.118828243756816     
  0.117611786269375       0.116395328781934       0.115178871294493     
  0.113962413807052       0.112745956319611       0.111529498832169     
  0.110313041344728       0.109096583857287       0.107880126369846     
  0.106663668882405       0.105447211394964       0.104230753907523     
  0.103014296420082       0.101797838932641       0.100581381445200     
  9.936492395775909E-002  0.139642210639667       0.138425753152226     
  0.137209295664785       0.135992838177344       0.134776380689903     
  0.133559923202462       0.132343465715021       0.131127008227580     
  0.129910550740139       0.128694093252698       0.127477635765257     
  0.126261178277815       0.125044720790374       0.123828263302933     
  0.122611805815492       0.121395348328051       0.120178890840610     
  0.118962433353169       0.117745975865728       0.116529518378287     
  0.115313060890846       0.114096603403405       0.112880145915964     
  0.111663688428523       0.110447230941082       0.109230773453641     
  0.151350913141889       0.150134455654448       0.148917998167007     
  0.147701540679566       0.146485083192125       0.145268625704684     
  0.144052168217243       0.142835710729802       0.141619253242361     
  0.140402795754919       0.139186338267479       0.137969880780038     
  0.136753423292597       0.135536965805156       0.134320508317715     
  0.133104050830273       0.131887593342832       0.130671135855391     
  0.129454678367950       0.128238220880509       0.127021763393068     
  0.125805305905627       0.124588848418186       0.123372390930745     
  0.122155933443304       0.120939475955863       0.164702129504373     
  0.163485672016932       0.162269214529491       0.161052757042050     
  0.159836299554609       0.158619842067168       0.157403384579727     
  0.156186927092286       0.154970469604845       0.153754012117404     
  0.152537554629963       0.151321097142522       0.150104639655081     
  0.148888182167639       0.147671724680199       0.146455267192757     
  0.145238809705317       0.144022352217875       0.142805894730434     
  0.141589437242993       0.140372979755552       0.139156522268111     
  0.137940064780670       0.136723607293229       0.135507149805788     
  0.134290692318347       0.179467416713500       0.178250959226059     
  0.177034501738618       0.175818044251177       0.174601586763736     
  0.173385129276295       0.172168671788854       0.170952214301412     
  0.169735756813972       0.168519299326531       0.167302841839090     
  0.166086384351648       0.164869926864207       0.163653469376766     
  0.162437011889325       0.161220554401884       0.160004096914443     
  0.158787639427002       0.157571181939561       0.156354724452120     
  0.155138266964679       0.153921809477238       0.152705351989797     
  0.151488894502356       0.150272437014915       0.149055979527474     
  0.195394136611411       0.194177679123970       0.192961221636529     
  0.191744764149088       0.190528306661647       0.189311849174206     
  0.188095391686765       0.186878934199324       0.185662476711883     
  0.184446019224442       0.183229561737001       0.182013104249560     
  0.180796646762118       0.179580189274677       0.178363731787237     
  0.177147274299795       0.175930816812354       0.174714359324913     
  0.173497901837472       0.172281444350031       0.171064986862590     
  0.169848529375149       0.168632071887708       0.167415614400267     
  0.166199156912826       0.164982699425385       0.212209778604932     
  0.210993321117490       0.209776863630050       0.208560406142608     
  0.207343948655168       0.206127491167727       0.204911033680286     
  0.203694576192845       0.202478118705403       0.201261661217962     
  0.200045203730521       0.198828746243080       0.197612288755639     
  0.196395831268198       0.195179373780757       0.193962916293316     
  0.192746458805875       0.191530001318434       0.190313543830993     
  0.189097086343552       0.187880628856111       0.186664171368670     
  0.185447713881229       0.184231256393788       0.183014798906347     
  0.181798341418905       0.229626622397376       0.228410164909935     
  0.227193707422494       0.225977249935053       0.224760792447612     
  0.223544334960172       0.222327877472730       0.221111419985289     
  0.219894962497848       0.218678505010407       0.217462047522966     
  0.216245590035525       0.215029132548084       0.213812675060643     
  0.212596217573202       0.211379760085761       0.210163302598319     
  0.208946845110879       0.207730387623437       0.206513930135997     
  0.205297472648556       0.204081015161114       0.202864557673673     
  0.201648100186232       0.200431642698791       0.199215185211350     
  0.247346660962595       0.246130203475154       0.244913745987713     
  0.243697288500271       0.242480831012831       0.241264373525390     
  0.240047916037948       0.238831458550508       0.237615001063066     
  0.236398543575625       0.235182086088184       0.233965628600743     
  0.232749171113302       0.231532713625861       0.230316256138420     
  0.229099798650979       0.227883341163538       0.226666883676097     
  0.225450426188656       0.224233968701214       0.223017511213774     
  0.221801053726333       0.220584596238892       0.219368138751450     
  0.218151681264009       0.216935223776568       0.265066699527813     
  0.263850242040372       0.262633784552931       0.261417327065490     
  0.260200869578049       0.258984412090608       0.257767954603167     
  0.256551497115726       0.255335039628285       0.254118582140844     
  0.252902124653403       0.251685667165961       0.250469209678521     
  0.249252752191080       0.248036294703638       0.246819837216197     
  0.245603379728756       0.244386922241315       0.243170464753874     
  0.241954007266433       0.240737549778992       0.239521092291551     
  0.238304634804110       0.237088177316669       0.235871719829228     
  0.234655262341787       0.282483543320258       0.281267085832817     
  0.280050628345375       0.278834170857934       0.277617713370494     
  0.276401255883052       0.275184798395611       0.273968340908170     
  0.272751883420729       0.271535425933288       0.270318968445847     
  0.269102510958406       0.267886053470965       0.266669595983524     
  0.265453138496083       0.264236681008641       0.263020223521201     
  0.261803766033760       0.260587308546319       0.259370851058878     
  0.258154393571437       0.256937936083995       0.255721478596554     
  0.254505021109114       0.253288563621672       0.252072106134231     
  0.299299185313778       0.298082727826337       0.296866270338897     
  0.295649812851455       0.294433355364014       0.293216897876573     
  0.292000440389132       0.290783982901691       0.289567525414250     
  0.288351067926809       0.287134610439368       0.285918152951927     
  0.284701695464486       0.283485237977045       0.282268780489603     
  0.281052323002163       0.279835865514722       0.278619408027280     
  0.277402950539840       0.276186493052398       0.274970035564957     
  0.273753578077516       0.272537120590075       0.271320663102634     
  0.270104205615193       0.268887748127752       0.315225905211689     
  0.314009447724248       0.312792990236807       0.311576532749366     
  0.310360075261925       0.309143617774484       0.307927160287043     
  0.306710702799602       0.305494245312161       0.304277787824720     
  0.303061330337279       0.301844872849838       0.300628415362397     
  0.299411957874955       0.298195500387515       0.296979042900074     
  0.295762585412633       0.294546127925191       0.293329670437751     
  0.292113212950309       0.290896755462868       0.289680297975427     
  0.288463840487986       0.287247383000545       0.286030925513104     
  0.284814468025663       0.329991192420816       0.328774734933375     
  0.327558277445934       0.326341819958493       0.325125362471052     
  0.323908904983611       0.322692447496170       0.321475990008729     
  0.320259532521288       0.319043075033846       0.317826617546406     
  0.316610160058965       0.315393702571524       0.314177245084083     
  0.312960787596642       0.311744330109200       0.310527872621760     
  0.309311415134318       0.308094957646877       0.306878500159436     
  0.305662042671996       0.304445585184554       0.303229127697113     
  0.302012670209672       0.300796212722231       0.299579755234790     
  0.343342408783300       0.342125951295859       0.340909493808418     
  0.339693036320977       0.338476578833536       0.337260121346095     
  0.336043663858654       0.334827206371213       0.333610748883772     
  0.332394291396331       0.331177833908890       0.329961376421448     
  0.328744918934008       0.327528461446567       0.326312003959125     
  0.325095546471685       0.323879088984244       0.322662631496802     
  0.321446174009361       0.320229716521920       0.319013259034479     
  0.317796801547038       0.316580344059597       0.315363886572156     
  0.314147429084716       0.312930971597274       0.355051111285522     
  0.353834653798081       0.352618196310640       0.351401738823199     
  0.350185281335758       0.348968823848317       0.347752366360876     
  0.346535908873435       0.345319451385994       0.344102993898553     
  0.342886536411112       0.341670078923671       0.340453621436230     
  0.339237163948789       0.338020706461347       0.336804248973906     
  0.335587791486466       0.334371333999024       0.333154876511584     
  0.331938419024142       0.330721961536701       0.329505504049260     
  0.328289046561819       0.327072589074378       0.325856131586937     
  0.324639674099496       0.364916960781404       0.363700503293963     
  0.362484045806522       0.361267588319081       0.360051130831640     
  0.358834673344199       0.357618215856758       0.356401758369317     
  0.355185300881876       0.353968843394434       0.352752385906994     
  0.351535928419552       0.350319470932112       0.349103013444671     
  0.347886555957229       0.346670098469788       0.345453640982347     
  0.344237183494906       0.343020726007465       0.341804268520024     
  0.340587811032583       0.339371353545142       0.338154896057701     
  0.336938438570260       0.335721981082819       0.334505523595378     
  0.372771149850740       0.371554692363300       0.370338234875858     
  0.369121777388417       0.367905319900977       0.366688862413535     
  0.365472404926095       0.364255947438653       0.363039489951212     
  0.361823032463771       0.360606574976331       0.359390117488889     
  0.358173660001448       0.356957202514007       0.355740745026566     
  0.354524287539125       0.353307830051684       0.352091372564243     
  0.350874915076802       0.349658457589360       0.348442000101920     
  0.347225542614478       0.346009085127038       0.344792627639596     
  0.343576170152156       0.342359712664714       0.378479291140963     
  0.377262833653522       0.376046376166081       0.374829918678640     