 Title = "Wing and Wake"
 VARIABLES = "X" "Y" "Z" "GAM"
 Zone I=   26 J=   25 K=1  T="Blade"
 DATAPACKING=BLOCK
 VARLOCATION=([4]=CELLCENTERED)
  0.121045029266842       0.120183638601321       0.119322247935801     
  0.118460857270280       0.117599466604759       0.116738075939238     
  0.115876685273718       0.115015294608197       0.114153903942676     
  0.113292513277155       0.112431122611634       0.111569731946114     
  0.110708341280593       0.109846950615072       0.108985559949551     
  0.108124169284031       0.107262778618510       0.106401387952989     
  0.105539997287469       0.104678606621948       0.103817215956427     
  0.102955825290906       0.102094434625385       0.101233043959865     
  0.100371653294344       9.951026262882351E-002  0.122469318711211     
  0.121607928045691       0.120746537380170       0.119885146714649     
  0.119023756049128       0.118162365383607       0.117300974718087     
  0.116439584052566       0.115578193387045       0.114716802721525     
  0.113855412056004       0.112994021390483       0.112132630724962     
  0.111271240059441       0.110409849393921       0.109548458728400     
  0.108687068062879       0.107825677397358       0.106964286731838     
  0.106102896066317       0.105241505400796       0.104380114735275     
  0.103518724069755       0.102657333404234       0.101795942738713     
  0.100934552073192       0.126717817057038       0.125856426391517     
  0.124995035725996       0.124133645060475       0.123272254394955     
  0.122410863729434       0.121549473063913       0.120688082398393     
  0.119826691732872       0.118965301067351       0.118103910401830     
  0.117242519736310       0.116381129070789       0.115519738405268     
  0.114658347739747       0.113796957074226       0.112935566408706     
  0.112074175743185       0.111212785077664       0.110351394412144     
  0.109490003746623       0.108628613081102       0.107767222415581     
  0.106905831750061       0.106044441084540       0.105183050419019     
  0.133717831319719       0.132856440654198       0.131995049988677     
  0.131133659323157       0.130272268657636       0.129410877992115     
  0.128549487326594       0.127688096661073       0.126826705995553     
  0.125965315330032       0.125103924664511       0.124242533998991     
  0.123381143333470       0.122519752667949       0.121658362002429     
  0.120796971336908       0.119935580671387       0.119074190005866     
  0.118212799340346       0.117351408674824       0.116490018009304     
  0.115628627343783       0.114767236678262       0.113905846012741     
  0.113044455347221       0.112183064681700       0.143349589314449     
  0.142488198648928       0.141626807983407       0.140765417317886     
  0.139904026652366       0.139042635986845       0.138181245321324     
  0.137319854655803       0.136458463990283       0.135597073324762     
  0.134735682659242       0.133874291993721       0.133012901328200     
  0.132151510662679       0.131290119997159       0.130428729331637     
  0.129567338666117       0.128705948000596       0.127844557335075     
  0.126983166669554       0.126121776004034       0.125260385338513     
  0.124398994672992       0.123537604007472       0.122676213341951     
  0.121814822676430       0.155448288991510       0.154586898325989     
  0.153725507660469       0.152864116994948       0.152002726329427     
  0.151141335663906       0.150279944998385       0.149418554332865     
  0.148557163667344       0.147695773001823       0.146834382336302     
  0.145972991670782       0.145111601005261       0.144250210339740     
  0.143388819674220       0.142527429008699       0.141666038343179     
  0.140804647677658       0.139943257012137       0.139081866346616     
  0.138220475681095       0.137359085015575       0.136497694350054     
  0.135636303684533       0.134774913019012       0.133913522353492     
  0.169806918245035       0.168945527579514       0.168084136913993     
  0.167222746248473       0.166361355582952       0.165499964917432     
  0.164638574251911       0.163777183586390       0.162915792920869     
  0.162054402255348       0.161193011589828       0.160331620924307     
  0.159470230258786       0.158608839593266       0.157747448927745     
  0.156886058262224       0.156024667596704       0.155163276931183     
  0.154301886265661       0.153440495600141       0.152579104934620     
  0.151717714269100       0.150856323603579       0.149994932938058     
  0.149133542272537       0.148272151607017       0.186179796947532     
  0.185318406282011       0.184457015616491       0.183595624950970     
  0.182734234285449       0.181872843619928       0.181011452954408     
  0.180150062288887       0.179288671623366       0.178427280957846     
  0.177565890292325       0.176704499626804       0.175843108961283     
  0.174981718295763       0.174120327630242       0.173258936964721     
  0.172397546299201       0.171536155633679       0.170674764968159     
  0.169813374302638       0.168951983637117       0.168090592971596     
  0.167229202306076       0.166367811640555       0.165506420975034     
  0.164645030309513       0.204286780604982       0.203425389939461     
  0.202563999273940       0.201702608608419       0.200841217942898     
  0.199979827277378       0.199118436611857       0.198257045946336     
  0.197395655280815       0.196534264615294       0.195672873949774     
  0.194811483284253       0.193950092618732       0.193088701953212     
  0.192227311287691       0.191365920622170       0.190504529956649     
  0.189643139291129       0.188781748625608       0.187920357960087     
  0.187058967294566       0.186197576629046       0.185336185963525     
  0.184474795298004       0.183613404632484       0.182752013966962     
  0.223818053706800       0.222956663041279       0.222095272375758     
  0.221233881710238       0.220372491044716       0.219511100379196     
  0.218649709713676       0.217788319048154       0.216926928382634     
  0.216065537717113       0.215204147051592       0.214342756386072     
  0.213481365720551       0.212619975055030       0.211758584389510     
  0.210897193723989       0.210035803058468       0.209174412392947     
  0.208313021727426       0.207451631061906       0.206590240396385     
  0.205728849730864       0.204867459065344       0.204006068399823     
  0.203144677734302       0.202283287068781       0.244439430755124     
  0.243578040089603       0.242716649424082       0.241855258758560     
  0.240993868093040       0.240132477427520       0.239271086761999     
  0.238409696096478       0.237548305430958       0.236686914765436     
  0.235825524099916       0.234964133434395       0.234102742768875     
  0.233241352103353       0.232379961437833       0.231518570772313     
  0.230657180106792       0.229795789441270       0.228934398775750     
  0.228073008110230       0.227211617444708       0.226350226779188     
  0.225488836113667       0.224627445448146       0.223766054782626     
  0.222904664117105       0.265798074271329       0.264936683605809     
  0.264075292940288       0.263213902274767       0.262352511609246     
  0.261491120943726       0.260629730278205       0.259768339612685     
  0.258906948947164       0.258045558281643       0.257184167616122     
  0.256322776950602       0.255461386285081       0.254599995619560     
  0.253738604954039       0.252877214288518       0.252015823622998     
  0.251154432957477       0.250293042291956       0.249431651626435     
  0.248570260960915       0.247708870295394       0.246847479629873     
  0.245986088964352       0.245124698298832       0.244263307633311     
  0.287528531943121       0.286667141277600       0.285805750612080     
  0.284944359946559       0.284082969281038       0.283221578615517     
  0.282360187949997       0.281498797284476       0.280637406618954     
  0.279776015953434       0.278914625287914       0.278053234622393     
  0.277191843956872       0.276330453291352       0.275469062625830     
  0.274607671960310       0.273746281294789       0.272884890629268     
  0.272023499963748       0.271162109298226       0.270300718632706     
  0.269439327967185       0.268577937301664       0.267716546636144     
  0.266855155970622       0.265993765305102       0.309258989614912     
  0.308397598949392       0.307536208283871       0.306674817618350     
  0.305813426952829       0.304952036287309       0.304090645621787     
  0.303229254956267       0.302367864290747       0.301506473625226     
  0.300645082959705       0.299783692294184       0.298922301628663     
  0.298060910963143       0.297199520297622       0.296338129632101     
  0.295476738966581       0.294615348301060       0.293753957635540     
  0.292892566970018       0.292031176304498       0.291169785638976     
  0.290308394973456       0.289447004307936       0.288585613642414     
  0.287724222976894       0.330617633131118       0.329756242465598     
  0.328894851800077       0.328033461134557       0.327172070469036     
  0.326310679803514       0.325449289137994       0.324587898472474     
  0.323726507806953       0.322865117141432       0.322003726475911     
  0.321142335810389       0.320280945144870       0.319419554479349     
  0.318558163813828       0.317696773148307       0.316835382482786     
  0.315973991817265       0.315112601151745       0.314251210486224     
  0.313389819820704       0.312528429155182       0.311667038489661     
  0.310805647824142       0.309944257158620       0.309082866493099     
  0.351239010179442       0.350377619513921       0.349516228848401     
  0.348654838182880       0.347793447517359       0.346932056851838     
  0.346070666186318       0.345209275520797       0.344347884855276     
  0.343486494189755       0.342625103524235       0.341763712858715     
  0.340902322193193       0.340040931527672       0.339179540862151     
  0.338318150196631       0.337456759531109       0.336595368865590     
  0.335733978200068       0.334872587534548       0.334011196869027     
  0.333149806203506       0.332288415537985       0.331427024872465     
  0.330565634206944       0.329704243541423       0.370770283281260     
  0.369908892615740       0.369047501950219       0.368186111284698     
  0.367324720619177       0.366463329953657       0.365601939288136     
  0.364740548622615       0.363879157957095       0.363017767291573     
  0.362156376626053       0.361294985960533       0.360433595295011     
  0.359572204629490       0.358710813963970       0.357849423298449     
  0.356988032632928       0.356126641967407       0.355265251301887     
  0.354403860636366       0.353542469970846       0.352681079305325     
  0.351819688639804       0.350958297974283       0.350096907308762     
  0.349235516643242       0.388877266938709       0.388015876273190     
  0.387154485607668       0.386293094942148       0.385431704276627     
  0.384570313611106       0.383708922945585       0.382847532280064     
  0.381986141614543       0.381124750949023       0.380263360283503     
  0.379401969617981       0.378540578952461       0.377679188286940     
  0.376817797621419       0.375956406955898       0.375095016290378     
  0.374233625624857       0.373372234959336       0.372510844293816     
  0.371649453628295       0.370788062962774       0.369926672297254     
  0.369065281631733       0.368203890966212       0.367342500300691     
  0.405250145641206       0.404388754975686       0.403527364310165     
  0.402665973644645       0.401804582979124       0.400943192313603     
  0.400081801648082       0.399220410982561       0.398359020317041     
  0.397497629651520       0.396636238986000       0.395774848320478     
  0.394913457654957       0.394052066989436       0.393190676323916     
  0.392329285658395       0.391467894992875       0.390606504327354     
  0.389745113661834       0.388883722996313       0.388022332330792     
  0.387160941665272       0.386299550999749       0.385438160334229     
  0.384576769668710       0.383715379003188       0.419608774894732     
  0.418747384229211       0.417885993563690       0.417024602898169     
  0.416163212232649       0.415301821567127       0.414440430901607     
  0.413579040236086       0.412717649570567       0.411856258905045     
  0.410994868239524       0.410133477574004       0.409272086908483     
  0.408410696242963       0.407549305577441       0.406687914911920     
  0.405826524246400       0.404965133580879       0.404103742915358     
  0.403242352249838       0.402380961584317       0.401519570918796     
  0.400658180253275       0.399796789587754       0.398935398922234     
  0.398074008256713       0.431707474571793       0.430846083906272     
  0.429984693240752       0.429123302575232       0.428261911909710     
  0.427400521244189       0.426539130578668       0.425677739913149     
  0.424816349247628       0.423954958582107       0.423093567916586     
  0.422232177251065       0.421370786585545       0.420509395920023     
  0.419648005254503       0.418786614588982       0.417925223923461     
  0.417063833257941       0.416202442592420       0.415341051926900     
  0.414479661261379       0.413618270595858       0.412756879930336     
  0.411895489264816       0.411034098599295       0.410172707933774     
  0.441339232566523       0.440477841901003       0.439616451235482     
  0.438755060569961       0.437893669904441       0.437032279238919     
  0.436170888573398       0.435309497907878       0.434448107242357     
  0.433586716576838       0.432725325911316       0.431863935245795     
  0.431002544580274       0.430141153914753       0.429279763249233     
  0.428418372583712       0.427556981918191       0.426695591252670     
  0.425834200587150       0.424972809921628       0.424111419256109     
  0.423250028590587       0.422388637925066       0.421527247259546     
  0.420665856594025       0.419804465928504       0.448339246829204     
  0.447477856163684       0.446616465498163       0.445755074832642     
  0.444893684167121       0.444032293501600       0.443170902836080     
  0.442309512170560       0.441448121505038       0.440586730839518     
  0.439725340173998       0.438863949508476       0.438002558842955     
  0.437141168177435       0.436279777511913       0.435418386846392     
  0.434556996180872       0.433695605515351       0.432834214849832     
  0.431972824184310       0.431111433518789       0.430250042853269     
  0.429388652187748       0.428527261522227       0.427665870856707     
  0.426804480191185       0.452587745175031       0.451726354509509     
  0.450864963843990       0.450003573178468       0.449142182512947     
  0.448280791847428       0.447419401181907       0.446558010516385     
  0.445696619850865       0.444835229185344       0.443973838519824     
  0.443112447854302       0.442251057188782       0.441389666523261     
  0.440528275857741       0.439666885192220       0.438805494526699     
  0.437944103861178       0.437082713195657       0.436221322530136     
  0.435359931864616       0.434498541199095       0.433637150533574     
  0.432775759868054       0.431914369202533       0.431052978537012     
  0.454012034619399       0.453150643953879       0.452289253288359     
  0.451427862622838       0.450566471957316       0.449705081291797     
  0.448843690626277       0.447982299960754       0.447120909295234     
  0.446259518629713       0.445398127964193       0.444536737298672     
  0.443675346633151       0.442813955967631       0.441952565302109     
  0.441091174636589       0.440229783971067       0.439368393305547     
  0.438507002640026       0.437645611974505       0.436784221308985     
  0.435922830643464       0.435061439977943       0.434200049312423     
  0.433338658646902       0.432477267981381     
 -2.054509405647633E-002 -2.202901138862006E-002 -2.351292872076375E-002
 -2.499684605290730E-002 -2.648076338505089E-002 -2.796468071719455E-002
 -2.944859804933816E-002 -3.093251538148160E-002 -3.241643271362518E-002
 -3.390035004576920E-002 -3.538426737791265E-002 -3.686818471005621E-002
 -3.835210204220010E-002 -3.983601937434369E-002 -4.131993670648733E-002
 -4.280385403863099E-002 -4.428777137077443E-002 -4.577168870291843E-002
 -4.725560603506182E-002 -4.873952336720544E-002 -5.022344069934893E-002
 -5.170735803149275E-002 -5.319127536363613E-002 -5.467519269577995E-002
 -5.615911002792351E-002 -5.764302736006716E-002 -2.137187167124220E-002
 -2.285578900338577E-002 -2.433970633552969E-002 -2.582362366767318E-002
 -2.730754099981682E-002 -2.879145833196033E-002 -3.027537566410405E-002
 -3.175929299624770E-002 -3.324321032839142E-002 -3.472712766053492E-002
 -3.621104499267853E-002 -3.769496232482215E-002 -3.917887965696584E-002
 -4.066279698910951E-002 -4.214671432125317E-002 -4.363063165339685E-002
 -4.511454898554036E-002 -4.659846631768391E-002 -4.808238364982760E-002
 -4.956630098197121E-002 -5.105021831411482E-002 -5.253413564625856E-002
 -5.401805297840213E-002 -5.550197031054573E-002 -5.698588764268960E-002
 -5.846980497483296E-002 -2.383805812132490E-002 -2.532197545346832E-002
 -2.680589278561207E-002 -2.828981011775588E-002 -2.977372744989950E-002
 -3.125764478204323E-002 -3.274156211418669E-002 -3.422547944633036E-002
 -3.570939677847402E-002 -3.719331411061759E-002 -3.867723144276094E-002
 -4.016114877490485E-002 -4.164506610704837E-002 -4.312898343919217E-002
 -4.461290077133567E-002 -4.609681810347922E-002 -4.758073543562309E-002
 -4.906465276776663E-002 -5.054857009991025E-002 -5.203248743205401E-002
 -5.351640476419754E-002 -5.500032209634122E-002 -5.648423942848475E-002
 -5.796815676062841E-002 -5.945207409277188E-002 -6.093599142491563E-002
 -2.790145627280749E-002 -2.938537360495131E-002 -3.086929093709484E-002
 -3.235320826923835E-002 -3.383712560138225E-002 -3.532104293352559E-002
 -3.680496026566907E-002 -3.828887759781296E-002 -3.977279492995655E-002
 -4.125671226210045E-002 -4.274062959424395E-002 -4.422454692638760E-002
 -4.570846425853102E-002 -4.719238159067488E-002 -4.867629892281859E-002
 -5.016021625496206E-002 -5.164413358710576E-002 -5.312805091924910E-002
 -5.461196825139313E-002 -5.609588558353672E-002 -5.757980291568019E-002
 -5.906372024782382E-002 -6.054763757996749E-002 -6.203155491211092E-002
 -6.351547224425484E-002 -6.499938957639831E-002 -3.349254025673142E-002
 -3.497645758887485E-002 -3.646037492101864E-002 -3.794429225316218E-002
 -3.942820958530593E-002 -4.091212691744950E-002 -4.239604424959321E-002
 -4.387996158173665E-002 -4.536387891388042E-002 -4.684779624602398E-002
 -4.833171357816762E-002 -4.981563091031152E-002 -5.129954824245483E-002
 -5.278346557459863E-002 -5.426738290674236E-002 -5.575130023888565E-002
 -5.723521757102926E-002 -5.871913490317314E-002 -6.020305223531677E-002
 -6.168696956746041E-002 -6.317088689960425E-002 -6.465480423174753E-002
 -6.613872156389117E-002 -6.762263889603488E-002 -6.910655622817859E-002
 -7.059047356032212E-002 -4.051564507599027E-002 -4.199956240813400E-002
 -4.348347974027760E-002 -4.496739707242122E-002 -4.645131440456478E-002
 -4.793523173670846E-002 -4.941914906885182E-002 -5.090306640099566E-002
 -5.238698373313923E-002 -5.387090106528267E-002 -5.535481839742642E-002
 -5.683873572956985E-002 -5.832265306171387E-002 -5.980657039385717E-002
 -6.129048772600105E-002 -6.277440505814458E-002 -6.425832239028841E-002
 -6.574223972243187E-002 -6.722615705457549E-002 -6.871007438671929E-002
 -7.019399171886267E-002 -7.167790905100634E-002 -7.316182638315011E-002
 -7.464574371529382E-002 -7.612966104743731E-002 -7.761357837958087E-002
 -4.885060345995383E-002 -5.033452079209766E-002 -5.181843812424094E-002
 -5.330235545638484E-002 -5.478627278852812E-002 -5.627019012067197E-002
 -5.775410745281582E-002 -5.923802478495882E-002 -6.072194211710298E-002
 -6.220585944924666E-002 -6.368977678139021E-002 -6.517369411353391E-002
 -6.665761144567749E-002 -6.814152877782113E-002 -6.962544610996485E-002
 -7.110936344210847E-002 -7.259328077425213E-002 -7.407719810639583E-002
 -7.556111543853947E-002 -7.704503277068277E-002 -7.852895010282665E-002
 -8.001286743497016E-002 -8.149678476711347E-002 -8.298070209925754E-002
 -8.446461943140114E-002 -8.594853676354484E-002 -5.835480195978602E-002
 -5.983871929192965E-002 -6.132263662407317E-002 -6.280655395621702E-002
 -6.429047128836046E-002 -6.577438862050421E-002 -6.725830595264777E-002
 -6.874222328479145E-002 -7.022614061693495E-002 -7.171005794907863E-002
 -7.319397528122207E-002 -7.467789261336617E-002 -7.616180994550945E-002
 -7.764572727765331E-002 -7.912964460979693E-002 -8.061356194194043E-002
 -8.209747927408427E-002 -8.358139660622767E-002 -8.506531393837159E-002
 -8.654923127051513E-002 -8.803314860265853E-002 -8.951706593480219E-002
 -9.100098326694606E-002 -9.248490059908944E-002 -9.396881793123311E-002
 -9.545273526337684E-002 -6.886562110409258E-002 -7.034953843623605E-002
 -7.183345576837973E-002 -7.331737310052361E-002 -7.480129043266695E-002
 -7.628520776481094E-002 -7.776912509695441E-002 -7.925304242909763E-002
 -8.073695976124115E-002 -8.222087709338520E-002 -8.370479442552889E-002
 -8.518871175767266E-002 -8.667262908981592E-002 -8.815654642195979E-002
 -8.964046375410320E-002 -9.112438108624692E-002 -9.260829841839034E-002
 -9.409221575053457E-002 -9.557613308267800E-002 -9.706005041482160E-002
 -9.854396774696521E-002 -0.100027885079109      -0.101511802411253     
 -0.102995719743396      -0.104479637075540      -0.105963554407683     
 -8.020321786316485E-002 -8.168713519530831E-002 -8.317105252745222E-002
 -8.465496985959600E-002 -8.613888719173925E-002 -8.762280452388285E-002
 -8.910672185602671E-002 -9.059063918817001E-002 -9.207455652031377E-002
 -9.355847385245787E-002 -9.504239118460123E-002 -9.652630851674496E-002
 -9.801022584888854E-002 -9.949414318103218E-002 -0.100978060513176     
 -0.102461977845319      -0.103945895177463      -0.105429812509606     
 -0.106913729841750      -0.108397647173894      -0.109881564506037     
 -0.111365481838181      -0.112849399170325      -0.114333316502468     
 -0.115817233834612      -0.117301151166755      -9.217360281307942E-002
 -9.365752014522352E-002 -9.514143747736689E-002 -9.662535480951043E-002
 -9.810927214165410E-002 -9.959318947379758E-002 -0.101077106805941     
 -0.102561024138085      -0.104044941470229      -0.105528858802372     
 -0.107012776134516      -0.108496693466659      -0.109980610798803     
 -0.111464528130946      -0.112948445463091      -0.114432362795234     
 -0.115916280127377      -0.117400197459521      -0.118884114791665     
 -0.120368032123809      -0.121851949455952      -0.123335866788096     
 -0.124819784120240      -0.126303701452383      -0.127787618784527     
 -0.129271536116670      -0.104571959348526      -0.106055876680670     
 -0.107539794012813      -0.109023711344957      -0.110507628677101     
 -0.111991546009244      -0.113475463341388      -0.114959380673532     
 -0.116443298005675      -0.117927215337819      -0.119411132669962     
 -0.120895050002106      -0.122378967334250      -0.123862884666393     
 -0.125346801998536      -0.126830719330680      -0.128314636662824     
 -0.129798553994967      -0.131282471327111      -0.132766388659255     
 -0.134250305991399      -0.135734223323542      -0.137218140655686     
 -0.138702057987830      -0.140185975319973      -0.141669892652116     
 -0.117186148151709      -0.118670065483852      -0.120153982815996     
 -0.121637900148139      -0.123121817480283      -0.124605734812427     
 -0.126089652144570      -0.127573569476715      -0.129057486808857     
 -0.130541404141002      -0.132025321473145      -0.133509238805289     
 -0.134993156137432      -0.136477073469576      -0.137960990801720     
 -0.139444908133864      -0.140928825466007      -0.142412742798150     
 -0.143896660130294      -0.145380577462437      -0.146864494794581     
 -0.148348412126725      -0.149832329458869      -0.151316246791012     
 -0.152800164123155      -0.154284081455299      -0.129800336954892     
 -0.131284254287034      -0.132768171619179      -0.134252088951322     
 -0.135736006283466      -0.137219923615609      -0.138703840947753     
 -0.140187758279897      -0.141671675612040      -0.143155592944184     
 -0.144639510276327      -0.146123427608471      -0.147607344940615     
 -0.149091262272758      -0.150575179604902      -0.152059096937046     
 -0.153543014269190      -0.155026931601333      -0.156510848933477     
 -0.157994766265621      -0.159478683597764      -0.160962600929908     
 -0.162446518262052      -0.163930435594195      -0.165414352926338     
 -0.166898270258482      -0.142198693490338      -0.143682610822482     
 -0.145166528154625      -0.146650445486769      -0.148134362818912     
 -0.149618280151056      -0.151102197483200      -0.152586114815343     
 -0.154070032147487      -0.155553949479631      -0.157037866811774     
 -0.158521784143918      -0.160005701476061      -0.161489618808205     
 -0.162973536140348      -0.164457453472492      -0.165941370804636     
 -0.167425288136780      -0.168909205468923      -0.170393122801066     
 -0.171877040133211      -0.173360957465354      -0.174844874797498     
 -0.176328792129642      -0.177812709461785      -0.179296626793928     
 -0.154169078440253      -0.155652995772396      -0.157136913104540     
 -0.158620830436684      -0.160104747768827      -0.161588665100970     
 -0.163072582433114      -0.164556499765258      -0.166040417097401     
 -0.167524334429545      -0.169008251761689      -0.170492169093833     
 -0.171976086425976      -0.173460003758120      -0.174943921090263     
 -0.176427838422407      -0.177911755754551      -0.179395673086694     
 -0.180879590418838      -0.182363507750982      -0.183847425083125     
 -0.185331342415268      -0.186815259747412      -0.188299177079556     
 -0.189783094411700      -0.191267011743843      -0.165506675199325     
 -0.166990592531468      -0.168474509863612      -0.169958427195755     
 -0.171442344527899      -0.172926261860043      -0.174410179192187     
 -0.175894096524330      -0.177378013856475      -0.178861931188617     
 -0.180345848520760      -0.181829765852905      -0.183313683185048     
 -0.184797600517192      -0.186281517849335      -0.187765435181480     
 -0.189249352513623      -0.190733269845767      -0.192217187177911     
 -0.193701104510053      -0.195185021842197      -0.196668939174341     
 -0.198152856506485      -0.199636773838628      -0.201120691170773     
 -0.202604608502915      -0.176017494343631      -0.177501411675776     
 -0.178985329007919      -0.180469246340062      -0.181953163672206     
 -0.183437081004349      -0.184920998336493      -0.186404915668636     
 -0.187888833000781      -0.189372750332924      -0.190856667665068     
 -0.192340584997211      -0.193824502329355      -0.195308419661498     
 -0.196792336993643      -0.198276254325786      -0.199760171657929     
 -0.201244088990073      -0.202728006322217      -0.204211923654361     
 -0.205695840986503      -0.207179758318648      -0.208663675650792     
 -0.210147592982935      -0.211631510315078      -0.213115427647222     
 -0.185521692843463      -0.187005610175607      -0.188489527507751     
 -0.189973444839894      -0.191457362172038      -0.192941279504181     
 -0.194425196836325      -0.195909114168469      -0.197393031500612     
 -0.198876948832756      -0.200360866164900      -0.201844783497043     
 -0.203328700829187      -0.204812618161330      -0.206296535493475     
 -0.207780452825618      -0.209264370157761      -0.210748287489905     
 -0.212232204822049      -0.213716122154193      -0.215200039486336     
 -0.216683956818480      -0.218167874150623      -0.219651791482767     
 -0.221135708814911      -0.222619626147054      -0.193856651227428     
 -0.195340568559571      -0.196824485891714      -0.198308403223858     
 -0.199792320556002      -0.201276237888145      -0.202760155220289     
 -0.204244072552432      -0.205727989884577      -0.207211907216720     
 -0.208695824548863      -0.210179741881008      -0.211663659213151     
 -0.213147576545294      -0.214631493877438      -0.216115411209581     
 -0.217599328541726      -0.219083245873870      -0.220567163206013     
 -0.222051080538156      -0.223534997870300      -0.225018915202443     
 -0.226502832534586      -0.227986749866731      -0.229470667198874     
 -0.230954584531018      -0.200879756046686      -0.202363673378829     
 -0.203847590710973      -0.205331508043117      -0.206815425375261     
 -0.208299342707404      -0.209783260039546      -0.211267177371691     
 -0.212751094703835      -0.214235012035979      -0.215718929368123     
 -0.217202846700266      -0.218686764032409      -0.220170681364553     
 -0.221654598696697      -0.223138516028840      -0.224622433360984     
 -0.226106350693127      -0.227590268025272      -0.229074185357415     
 -0.230558102689559      -0.232042020021702      -0.233525937353846     
 -0.235009854685989      -0.236493772018134      -0.237977689350277     
 -0.206470840030610      -0.207954757362754      -0.209438674694897     
 -0.210922592027041      -0.212406509359185      -0.213890426691329     
 -0.215374344023471      -0.216858261355615      -0.218342178687759     
 -0.219826096019902      -0.221310013352046      -0.222793930684190     
 -0.224277848016333      -0.225761765348477      -0.227245682680621     
 -0.228729600012764      -0.230213517344908      -0.231697434677051     
 -0.233181352009195      -0.234665269341339      -0.236149186673484     
 -0.237633104005626      -0.239117021337769      -0.240600938669913     
 -0.242084856002056      -0.243568773334200      -0.210534238182093     
 -0.212018155514237      -0.213502072846380      -0.214985990178523     