 Title = "Wing and Wake"
 VARIABLES = "X" "Y" "Z" "GAM" "skew"
 Zone I=   11 J=   26 K=1  T="Blade"
 DATAPACKING=BLOCK
 VARLOCATION=([4]=CELLCENTERED,[5]=CELLCENTERED)
 -0.265051302897711      -0.254125196724896      -0.243199090552082     
 -0.232272984379268      -0.221346878206453      -0.210420772033639     
 -0.199494665860825      -0.188568559688011      -0.177642453515196     
 -0.166716347342382      -0.155790241169568      -0.268121697433324     
 -0.257195591260510      -0.246269485087695      -0.235343378914881     
 -0.224417272742067      -0.213491166569253      -0.202565060396438     
 -0.191638954223624      -0.180712848050810      -0.169786741877995     
 -0.158860635705181      -0.277284459084173      -0.266358352911359     
 -0.255432246738545      -0.244506140565730      -0.233580034392915     
 -0.222653928220101      -0.211727822047287      -0.200801715874473     
 -0.189875609701659      -0.178949503528844      -0.168023397356030     
 -0.292395085625455      -0.281468979452640      -0.270542873279827     
 -0.259616767107012      -0.248690660934198      -0.237764554761383     
 -0.226838448588569      -0.215912342415755      -0.204986236242941     
 -0.194060130070126      -0.183134023897312      -0.313215273449963     
 -0.302289167277148      -0.291363061104334      -0.280436954931520     
 -0.269510848758706      -0.258584742585891      -0.247658636413077     
 -0.236732530240263      -0.225806424067448      -0.214880317894634     
 -0.203954211721820      -0.339416675758328      -0.328490569585513     
 -0.317564463412699      -0.306638357239885      -0.295712251067071     
 -0.284786144894256      -0.273860038721441      -0.262933932548628     
 -0.252007826375813      -0.241081720202999      -0.230155614030185     
 -0.370586080784186      -0.359659974611372      -0.348733868438558     
 -0.337807762265744      -0.326881656092929      -0.315955549920115     
 -0.305029443747300      -0.294103337574487      -0.283177231401672     
 -0.272251125228858      -0.261325019056043      -0.406231928390582     
 -0.395305822217768      -0.384379716044954      -0.373453609872140     
 -0.362527503699325      -0.351601397526511      -0.340675291353697     
 -0.329749185180882      -0.318823079008068      -0.307896972835254     
 -0.296970866662440      -0.445792062266964      -0.434865956094150     
 -0.423939849921336      -0.413013743748522      -0.402087637575708     
 -0.391161531402893      -0.380235425230079      -0.369309319057264     
 -0.358383212884450      -0.347457106711636      -0.336531000538822     
 -0.488642595470025      -0.477716489297210      -0.466790383124395     
 -0.455864276951581      -0.444938170778767      -0.434012064605953     
 -0.423085958433139      -0.412159852260324      -0.401233746087510     
 -0.390307639914696      -0.379381533741881      -0.534107749493482     
 -0.523181643320667      -0.512255537147853      -0.501329430975039     
 -0.490403324802224      -0.479477218629410      -0.468551112456596     
 -0.457625006283780      -0.446698900110968      -0.435772793938153     
 -0.424846687765339      -0.581470511698820      -0.570544405526006     
 -0.559618299353190      -0.548692193180377      -0.537766087007563     
 -0.526839980834748      -0.515913874661934      -0.504987768489120     
 -0.494061662316305      -0.483135556143492      -0.472209449970677     
 -0.629983943032917      -0.619057836860106      -0.608131730687290     
 -0.597205624514476      -0.586279518341660      -0.575353412168848     
 -0.564427305996034      -0.553501199823218      -0.542575093650404     
 -0.531648987477590      -0.520722881304776      -0.678882957703120     
 -0.667956851530305      -0.657030745357492      -0.646104639184676     
 -0.635178533011861      -0.624252426839047      -0.613326320666233     
 -0.602400214493420      -0.591474108320605      -0.580548002147791     
 -0.569621895974976      -0.727396389037218      -0.716470282864404     
 -0.705544176691589      -0.694618070518776      -0.683691964345961     
 -0.672765858173146      -0.661839752000332      -0.650913645827518     
 -0.639987539654704      -0.629061433481889      -0.618135327309076     
 -0.774759151242556      -0.763833045069741      -0.752906938896928     
 -0.741980832724114      -0.731054726551299      -0.720128620378483     
 -0.709202514205670      -0.698276408032857      -0.687350301860043     
 -0.676424195687226      -0.665498089514414      -0.820224305266014     
 -0.809298199093199      -0.798372092920384      -0.787445986747570     
 -0.776519880574757      -0.765593774401943      -0.754667668229127     
 -0.743741562056313      -0.732815455883500      -0.721889349710684     
 -0.710963243537871      -0.863074838469073      -0.852148732296259     
 -0.841222626123445      -0.830296519950631      -0.819370413777816     
 -0.808444307605002      -0.797518201432187      -0.786592095259373     
 -0.775665989086558      -0.764739882913745      -0.753813776740930     
 -0.902634972345455      -0.891708866172640      -0.880782759999827     
 -0.869856653827013      -0.858930547654199      -0.848004441481383     
 -0.837078335308570      -0.826152229135755      -0.815226122962941     
 -0.804300016790127      -0.793373910617313      -0.938280819951851     
 -0.927354713779038      -0.916428607606222      -0.905502501433408     
 -0.894576395260595      -0.883650289087780      -0.872724182914966     
 -0.861798076742151      -0.850871970569336      -0.839945864396522     
 -0.829019758223708      -0.969450224977709      -0.958524118804895     
 -0.947598012632083      -0.936671906459267      -0.925745800286452     
 -0.914819694113638      -0.903893587940824      -0.892967481768011     
 -0.882041375595194      -0.871115269422381      -0.860189163249566     
 -0.995651627286074      -0.984725521113261      -0.973799414940446     
 -0.962873308767632      -0.951947202594816      -0.941021096422004     
 -0.930094990249188      -0.919168884076373      -0.908242777903562     
 -0.897316671730746      -0.886390565557932       -1.01647181511058     
  -1.00554570893777      -0.994619602764954      -0.983693496592139     
 -0.972767390419325      -0.961841284246513      -0.950915178073697     
 -0.939989071900883      -0.929062965728067      -0.918136859555255     
 -0.907210753382439       -1.03158244165187       -1.02065633547905     
  -1.00973022930624      -0.998804123133423      -0.987878016960608     
 -0.976951910787794      -0.966025804614980      -0.955099698442165     
 -0.944173592269352      -0.933247486096537      -0.922321379923721     
  -1.04074520330271       -1.02981909712990       -1.01889299095708     
  -1.00796688478427      -0.997040778611456      -0.986114672438640     
 -0.975188566265826      -0.964262460093012      -0.953336353920197     
 -0.942410247747385      -0.931484141574570       -1.04381559783833     
  -1.03288949166551       -1.02196338549270       -1.01103727931988     
  -1.00011117314707      -0.989185066974257      -0.978258960801441     
 -0.967332854628628      -0.956406748455814      -0.945480642282996     
 -0.934554536110185     
 -4.546602207375429E-002 -2.994938417457882E-002 -1.443274627540292E-002
  1.083891623773233E-003  1.660052952294921E-002  3.211716742212511E-002
  4.763380532130112E-002  6.315044322047711E-002  7.866708111965304E-002
  9.418371901882884E-002  0.109700356918005      -4.330399078150372E-002
 -2.778735288232768E-002 -1.227071498315216E-002  3.245922916023885E-003
  1.876256081519990E-002  3.427919871437578E-002  4.979583661355180E-002
  6.531247451272754E-002  8.082911241190377E-002  9.634575031107941E-002
  0.111862388210256      -3.685199342976564E-002 -2.133535553058959E-002
 -5.818717631413906E-003  9.697920267762190E-003  2.521455816693805E-002
  4.073119606611412E-002  5.624783396529007E-002  7.176447186446595E-002
  8.728110976364199E-002  0.102797747662818       0.118314385561994     
 -2.621178187101262E-002 -1.069514397183709E-002  4.821493927339080E-003
  2.033813182651492E-002  3.585476972569070E-002  5.137140762486668E-002
  6.688804552404282E-002  8.240468342321861E-002  9.792132132239455E-002
  0.113437959221571       0.128954597120746      -1.155115859768158E-002
  3.965479301494126E-003  1.948211720067012E-002  3.499875509984628E-002
  5.051539299902215E-002  6.603203089819812E-002  8.154866879737396E-002
  9.706530669654986E-002  0.112581944595726       0.128098582494902     
  0.143615220394078       6.898669603375788E-003  2.241530750255165E-002
  3.793194540172747E-002  5.344858330090343E-002  6.896522120007964E-002
  8.448185909925529E-002  9.999849699843120E-002  0.115515134897607     
  0.131031772796783       0.146548410695959       0.162065048595135     
  2.884673792003569E-002  4.436337581921127E-002  5.988001371838745E-002
  7.539665161756358E-002  9.091328951673944E-002  0.106429927415915     
  0.121946565315091       0.137463203214267       0.152979841113443     
  0.168496479012619       0.184013116911794       5.394691220380368E-002
  6.946355010297954E-002  8.498018800215562E-002  0.100496825901331     
  0.116013463800508       0.131530101699684       0.147046739598859     
  0.162563377498035       0.178080015397211       0.193596653296387     
  0.209113291195563       8.180334771210800E-002  9.731998561128413E-002
  0.112836623510459       0.128353261409636       0.143869899308811     
  0.159386537207987       0.174903175107164       0.190419813006339     
  0.205936450905515       0.221453088804691       0.236969726703867     
  0.111976731816354       0.127493369715530       0.143010007614705     
  0.158526645513881       0.174043283413057       0.189559921312233     
  0.205076559211409       0.220593197110585       0.236109835009761     
  0.251626472908937       0.267143110808113       0.143991212224511     
  0.159507850123687       0.175024488022864       0.190541125922040     
  0.206057763821215       0.221574401720391       0.237091039619567     
  0.252607677518743       0.268124315417919       0.283640953317095     
  0.299157591216271       0.177341901456021       0.192858539355198     
  0.208375177254373       0.223891815153549       0.239408453052725     
  0.254925090951902       0.270441728851077       0.285958366750253     
  0.301475004649429       0.316991642548605       0.332508280447780     
  0.211502839218966       0.227019477118142       0.242536115017318     
  0.258052752916494       0.273569390815669       0.289086028714845     
  0.304602666614022       0.320119304513197       0.335635942412374     
  0.351152580311549       0.366669218210726       0.245935287118068     
  0.261451925017245       0.276968562916421       0.292485200815597     
  0.308001838714772       0.323518476613948       0.339035114513124     
  0.354551752412301       0.370068390311476       0.385585028210653     
  0.401101666109828       0.280096224881013       0.295612862780189     
  0.311129500679365       0.326646138578541       0.342162776477716     
  0.357679414376892       0.373196052276069       0.388712690175245     
  0.404229328074421       0.419745965973596       0.435262603872773     
  0.313446914112523       0.328963552011699       0.344480189910875     
  0.359996827810051       0.375513465709227       0.391030103608402     
  0.406546741507578       0.422063379406756       0.437580017305931     
  0.453096655205106       0.468613293104283       0.345461394520681     
  0.360978032419857       0.376494670319032       0.392011308218209     
  0.407527946117385       0.423044584016560       0.438561221915737     
  0.454077859814913       0.469594497714088       0.485111135613265     
  0.500627773512440       0.375634778624926       0.391151416524103     
  0.406668054423279       0.422184692322455       0.437701330221630     
  0.453217968120807       0.468734606019982       0.484251243919158     
  0.499767881818334       0.515284519717511       0.530801157616685     
  0.403491214133230       0.419007852032406       0.434524489931583     
  0.450041127830759       0.465557765729934       0.481074403629110     
  0.496591041528286       0.512107679427463       0.527624317326639     
  0.543140955225814       0.558657593124990       0.428591388416999     
  0.444108026316175       0.459624664215351       0.475141302114526     
  0.490657940013703       0.506174577912879       0.521691215812054     
  0.537207853711231       0.552724491610405       0.568241129509582     
  0.583757767408758       0.450539456733658       0.466056094632835     
  0.481572732532010       0.497089370431186       0.512606008330361     
  0.528122646229538       0.543639284128715       0.559155922027891     
  0.574672559927066       0.590189197826242       0.605705835725417     
  0.468989284934715       0.484505922833892       0.500022560733068     
  0.515539198632244       0.531055836531419       0.546572474430596     
  0.562089112329771       0.577605750228948       0.593122388128124     
  0.608639026027299       0.624155663926477       0.483649908208047     
  0.499166546107224       0.514683184006399       0.530199821905576     
  0.545716459804751       0.561233097703926       0.576749735603102     
  0.592266373502279       0.607783011401454       0.623299649300631     
  0.638816287199807       0.494290119766800       0.509806757665977     
  0.525323395565151       0.540840033464329       0.556356671363504     
  0.571873309262682       0.587389947161855       0.602906585061032     
  0.618423222960208       0.633939860859383       0.649456498758559     
  0.500742117118538       0.516258755017715       0.531775392916890     
  0.547292030816066       0.562808668715242       0.578325306614416     
  0.593841944513593       0.609358582412769       0.624875220311945     
  0.640391858211120       0.655908496110297       0.502904148410790     
  0.518420786309965       0.533937424209141       0.549454062108316     
  0.564970700007492       0.580487337906668       0.596003975805843     
  0.611520613705022       0.627037251604198       0.642553889503371     
  0.658070527402549     
  1.660316899342888E-002  1.494285209408599E-002  1.328253519474311E-002
  1.162221829540022E-002  9.961901396057328E-003  8.301584496714441E-003
  6.641267597371552E-003  4.980950698028665E-003  3.320633798685776E-003
  1.660316899342887E-003  0.000000000000000E+000  1.660316899342888E-002
  1.494285209408599E-002  1.328253519474311E-002  1.162221829540022E-002
  9.961901396057328E-003  8.301584496714441E-003  6.641267597371552E-003
  4.980950698028665E-003  3.320633798685776E-003  1.660316899342887E-003
  0.000000000000000E+000  1.660316899342888E-002  1.494285209408599E-002
  1.328253519474311E-002  1.162221829540022E-002  9.961901396057328E-003
  8.301584496714441E-003  6.641267597371552E-003  4.980950698028665E-003
  3.320633798685776E-003  1.660316899342887E-003  0.000000000000000E+000
  1.660316899342888E-002  1.494285209408599E-002  1.328253519474311E-002
  1.162221829540022E-002  9.961901396057328E-003  8.301584496714441E-003
  6.641267597371552E-003  4.980950698028665E-003  3.320633798685776E-003
  1.660316899342887E-003  0.000000000000000E+000  1.660316899342888E-002
  1.494285209408599E-002  1.328253519474311E-002  1.162221829540022E-002
  9.961901396057328E-003  8.301584496714441E-003  6.641267597371552E-003
  4.980950698028665E-003  3.320633798685776E-003  1.660316899342887E-003
  0.000000000000000E+000  1.660316899342888E-002  1.494285209408599E-002
  1.328253519474311E-002  1.162221829540022E-002  9.961901396057328E-003
  8.301584496714441E-003  6.641267597371552E-003  4.980950698028665E-003
  3.320633798685776E-003  1.660316899342887E-003  0.000000000000000E+000
  1.660316899342888E-002  1.494285209408599E-002  1.328253519474311E-002
  1.162221829540022E-002  9.961901396057328E-003  8.301584496714441E-003
  6.641267597371552E-003  4.980950698028665E-003  3.320633798685776E-003
  1.660316899342887E-003  0.000000000000000E+000  1.660316899342888E-002
  1.494285209408599E-002  1.328253519474311E-002  1.162221829540022E-002
  9.961901396057328E-003  8.301584496714441E-003  6.641267597371552E-003
  4.980950698028665E-003  3.320633798685776E-003  1.660316899342887E-003
  0.000000000000000E+000  1.660316899342888E-002  1.494285209408599E-002
  1.328253519474311E-002  1.162221829540022E-002  9.961901396057328E-003
  8.301584496714441E-003  6.641267597371552E-003  4.980950698028665E-003
  3.320633798685776E-003  1.660316899342887E-003  0.000000000000000E+000
  1.660316899342888E-002  1.494285209408599E-002  1.328253519474311E-002
  1.162221829540022E-002  9.961901396057328E-003  8.301584496714441E-003
  6.641267597371552E-003  4.980950698028665E-003  3.320633798685776E-003
  1.660316899342887E-003  0.000000000000000E+000  1.660316899342888E-002
  1.494285209408599E-002  1.328253519474311E-002  1.162221829540022E-002
  9.961901396057328E-003  8.301584496714441E-003  6.641267597371552E-003
  4.980950698028665E-003  3.320633798685776E-003  1.660316899342887E-003
  0.000000000000000E+000  1.660316899342888E-002  1.494285209408599E-002
  1.328253519474311E-002  1.162221829540022E-002  9.961901396057328E-003
  8.301584496714441E-003  6.641267597371552E-003  4.980950698028665E-003
  3.320633798685776E-003  1.660316899342887E-003  0.000000000000000E+000
  1.660316899342888E-002  1.494285209408599E-002  1.328253519474311E-002
  1.162221829540022E-002  9.961901396057328E-003  8.301584496714441E-003
  6.641267597371552E-003  4.980950698028665E-003  3.320633798685776E-003
  1.660316899342887E-003  0.000000000000000E+000  1.660316899342888E-002
  1.494285209408599E-002  1.328253519474311E-002  1.162221829540022E-002
  9.961901396057328E-003  8.301584496714441E-003  6.641267597371552E-003
  4.980950698028665E-003  3.320633798685776E-003  1.660316899342887E-003
  0.000000000000000E+000  1.660316899342888E-002  1.494285209408599E-002
  1.328253519474311E-002  1.162221829540022E-002  9.961901396057328E-003
  8.301584496714441E-003  6.641267597371552E-003  4.980950698028665E-003
  3.320633798685776E-003  1.660316899342887E-003  0.000000000000000E+000
  1.660316899342888E-002  1.494285209408599E-002  1.328253519474311E-002
  1.162221829540022E-002  9.961901396057328E-003  8.301584496714441E-003
  6.641267597371552E-003  4.980950698028665E-003  3.320633798685776E-003
  1.660316899342887E-003  0.000000000000000E+000  1.660316899342888E-002
  1.494285209408599E-002  1.328253519474311E-002  1.162221829540022E-002
  9.961901396057328E-003  8.301584496714441E-003  6.641267597371552E-003
  4.980950698028665E-003  3.320633798685776E-003  1.660316899342887E-003
  0.000000000000000E+000  1.660316899342888E-002  1.494285209408599E-002
  1.328253519474311E-002  1.162221829540022E-002  9.961901396057328E-003
  8.301584496714441E-003  6.641267597371552E-003  4.980950698028665E-003
  3.320633798685776E-003  1.660316899342887E-003  0.000000000000000E+000
  1.660316899342888E-002  1.494285209408599E-002  1.328253519474311E-002
  1.162221829540022E-002  9.961901396057328E-003  8.301584496714441E-003
  6.641267597371552E-003  4.980950698028665E-003  3.320633798685776E-003
  1.660316899342887E-003  0.000000000000000E+000  1.660316899342888E-002
  1.494285209408599E-002  1.328253519474311E-002  1.162221829540022E-002
  9.961901396057328E-003  8.301584496714441E-003  6.641267597371552E-003
  4.980950698028665E-003  3.320633798685776E-003  1.660316899342887E-003
  0.000000000000000E+000  1.660316899342888E-002  1.494285209408599E-002
  1.328253519474311E-002  1.162221829540022E-002  9.961901396057328E-003
  8.301584496714441E-003  6.641267597371552E-003  4.980950698028665E-003
  3.320633798685776E-003  1.660316899342887E-003  0.000000000000000E+000
  1.660316899342888E-002  1.494285209408599E-002  1.328253519474311E-002
  1.162221829540022E-002  9.961901396057328E-003  8.301584496714441E-003
  6.641267597371552E-003  4.980950698028665E-003  3.320633798685776E-003
  1.660316899342887E-003  0.000000000000000E+000  1.660316899342888E-002
  1.494285209408599E-002  1.328253519474311E-002  1.162221829540022E-002
  9.961901396057328E-003  8.301584496714441E-003  6.641267597371552E-003
  4.980950698028665E-003  3.320633798685776E-003  1.660316899342887E-003
  0.000000000000000E+000  1.660316899342888E-002  1.494285209408599E-002
  1.328253519474311E-002  1.162221829540022E-002  9.961901396057328E-003
  8.301584496714441E-003  6.641267597371552E-003  4.980950698028665E-003
  3.320633798685776E-003  1.660316899342887E-003  0.000000000000000E+000
  1.660316899342888E-002  1.494285209408599E-002  1.328253519474311E-002
  1.162221829540022E-002  9.961901396057328E-003  8.301584496714441E-003
  6.641267597371552E-003  4.980950698028665E-003  3.320633798685776E-003
  1.660316899342887E-003  0.000000000000000E+000  1.660316899342888E-002
  1.494285209408599E-002  1.328253519474311E-002  1.162221829540022E-002
  9.961901396057328E-003  8.301584496714441E-003  6.641267597371552E-003
  4.980950698028665E-003  3.320633798685776E-003  1.660316899342887E-003
  0.000000000000000E+000
  4.405471551272541E-003  1.113857736976107E-002  1.834603459820698E-002
  2.583967201239609E-002  3.357167237906326E-002  4.143657195120851E-002
  4.910293232360610E-002  5.624355958501463E-002  6.273958991668542E-002
  6.791509090394902E-002  8.784905687560542E-003  2.021141390129495E-002
  3.227471223695057E-002  4.463979775604654E-002  5.722695076603893E-002
  6.989330430779821E-002  8.220929575404846E-002  9.374447130502103E-002
  0.104249094315587       0.112905497386311       1.668426374071732E-002
  3.307135848984853E-002  4.962172851198591E-002  6.604643251568529E-002
  8.222113368843535E-002  9.798922091408974E-002  0.113056474374564     
  0.127099344279009       0.139694609553136       0.149849498582848     
  2.872226751639645E-002  5.090826708379378E-002  7.183064569758320E-002
  9.176552519237068E-002  0.110637908837312       0.128296355268753     
  0.144551660671658       0.159209755465507       0.171885271852480     
  0.181594578331079       4.500089978110098E-002  7.446115548069074E-002
  0.100363490979715       0.124050578412995       0.145743026611093     
  0.165418083808126       0.182965908490326       0.198209316986304     
  0.210847673980728       0.220041786284707       6.543425569584022E-002
  0.103930361712826       0.135863306515520       0.164001400064483     
  0.189082006143664       0.211324312228132       0.230769196231720     
  0.247300419109110       0.260595149207034       0.269830394542663     
  9.008318476019793E-002  0.139521437071609       0.178734850730173     
  0.212236663480792       0.241461387933575       0.266964603014934     
  0.288935661091462       0.307346417787937       0.321936306800278     
  0.331863226483164       0.119208454313264       0.181660524481869     
  0.229578085021044       0.269536302871017       0.303778729391865     
  0.333267248381725       0.358404869613248       0.379282326830014     
  0.395687501167595       0.406712814791553       0.153096838975153     
  0.230778047664523       0.288947100352225       0.336560062039199     
  0.376775458950594       0.411010599027760       0.439930286102449     
  0.463771835504128       0.482381339203897       0.494793692759500     
  0.191832980132493       0.287017977977775       0.357022568024909     
  0.413491746181967       0.460613642976947       0.500321343569210     
  0.533587967651674       0.560837984648506       0.581989365972513     
  0.596009105124449       0.235186583091269       0.350033807045081     
  0.433363499833372       0.499807479946722       0.554701836396401     
  0.600566880406067       0.638714836844284       0.669768993066759     
  0.693740215857025       0.709537534549104       0.282619378775802     
  0.419029199007973       0.516987631189955       0.594385953627371     
  0.657813801077015       0.710427531260261       0.753907546321699     
  0.789097328455859       0.816113456043924       0.833811073070923     
  0.333436245674015       0.492971385508293       0.606619496925310     
  0.695754106222812       0.768309532125936       0.828126804998644     
  0.877281522750898       0.916849281608862       0.947062142433802     
  0.966736758465228       0.386993736922369       0.570880134442352     
  0.701019708655588       0.802455981514968       0.884545331416641     
  0.951856766913494        1.00688323152546        1.05094974250456     
   1.08441947581196        1.10608629891791       0.442985073951910     
  0.652238893995580       0.799478804284981       0.913594012468563     
   1.00543167291745        1.08033320542910        1.14124665913680     
   1.18977477893379        1.22643477346038        1.25002425189024     
  0.501676759706334       0.737370021816290       0.902280648384696     
   1.02933933504929        1.13096893384095        1.21334227475400     
   1.27992345091961        1.33264871785622        1.37223858023737     
   1.39755192295607       0.564844579454360       0.828741994080909     
   1.01216422889925        1.15242081115636        1.26369487555489     
   1.35312251309906        1.42478854271444        1.48107082637959     
   1.52300079111521        1.54960805185166       0.642237613790057     
  0.938877800638760        1.14242674973416        1.29605088589645     
   1.41639593738713        1.51193320943623        1.58757877173079     
   1.64628973766363        1.68954203625552        1.71671183492501     
  0.766969266764750        1.10670751565077        1.33251868677788     
   1.49935509514407        1.62800550396104        1.72875071580235     
   1.80755670833615        1.86808898247620        1.91233067987451     
   1.94001826709637       0.932742299992042        1.32387724043478     
   1.57261230815472        1.75063581936091        1.88449507712484     
   1.98728324907740        2.06654616193116        2.12684788181187     
   2.17072946273463        2.19838007030827        1.00941976110642     
   1.42113910246474        1.67442440465985        1.84947131471505     
   1.97743956664694        2.07361421375366        2.14645628841524     
   2.20088513858113        2.23960257874996        2.26328771073297     
  0.974413165887470        1.35654452961765        1.58363453167471     
   1.73632838568876        1.84568930579925        1.92664685282378     
   1.98717461067106        2.03168616912171        2.06242075071338     
   2.07995275512950       0.854291973706623        1.16377381438270     
   1.34073014634865        1.45789037903212        1.54124835756782     
   1.60275078211195        1.64862851256253        1.68229588220524     
   1.70553515428465        1.71894258818320       0.657403883640430     
  0.867472065394393       0.985945906685368        1.06458150869257     
   1.12074267789802        1.16233375406296        1.19350531081366     
   1.21661074440738        1.23319165224503        1.24544675830360     
  0.400478726440995       0.518162476554808       0.585178530309874     
  0.629924388280676       0.662001716806915       0.685818172286684     
  0.703699203890514       0.716941816407581       0.726265408524558     
  0.731929994120472     
  0.000000000000000E+000  0.000000000000000E+000  0.000000000000000E+000
  0.000000000000000E+000  0.000000000000000E+000  0.000000000000000E+000
  0.000000000000000E+000  0.000000000000000E+000  0.000000000000000E+000
  0.000000000000000E+000  0.000000000000000E+000  0.000000000000000E+000
  0.000000000000000E+000  0.000000000000000E+000  0.000000000000000E+000
  0.000000000000000E+000  0.000000000000000E+000  0.000000000000000E+000
  0.000000000000000E+000  0.000000000000000E+000  0.000000000000000E+000
  0.000000000000000E+000  0.000000000000000E+000  0.000000000000000E+000
  0.000000000000000E+000  0.000000000000000E+000  0.000000000000000E+000
  0.000000000000000E+000  0.000000000000000E+000  0.000000000000000E+000
  0.000000000000000E+000  0.000000000000000E+000  0.000000000000000E+000
  0.000000000000000E+000  0.000000000000000E+000  0.000000000000000E+000
  0.000000000000000E+000  0.000000000000000E+000  0.000000000000000E+000
  0.000000000000000E+000  0.000000000000000E+000  0.000000000000000E+000
  0.000000000000000E+000  0.000000000000000E+000  0.000000000000000E+000
  0.000000000000000E+000  0.000000000000000E+000  0.000000000000000E+000
  0.000000000000000E+000  0.000000000000000E+000  0.000000000000000E+000
  0.000000000000000E+000  0.000000000000000E+000  0.000000000000000E+000
  0.000000000000000E+000  0.000000000000000E+000  0.000000000000000E+000
  0.000000000000000E+000  0.000000000000000E+000  0.000000000000000E+000
  0.000000000000000E+000  0.000000000000000E+000  0.000000000000000E+000
  0.000000000000000E+000  0.000000000000000E+000  0.000000000000000E+000
  0.000000000000000E+000  0.000000000000000E+000  0.000000000000000E+000
  0.000000000000000E+000  0.000000000000000E+000  0.000000000000000E+000
  0.000000000000000E+000  0.000000000000000E+000  0.000000000000000E+000
  0.000000000000000E+000  0.000000000000000E+000  0.000000000000000E+000
  0.000000000000000E+000  0.000000000000000E+000  0.000000000000000E+000
  0.000000000000000E+000  0.000000000000000E+000  0.000000000000000E+000
  0.000000000000000E+000  0.000000000000000E+000  0.000000000000000E+000
  0.000000000000000E+000  0.000000000000000E+000  0.000000000000000E+000
  0.000000000000000E+000  0.000000000000000E+000  0.000000000000000E+000
  0.000000000000000E+000  0.000000000000000E+000  0.000000000000000E+000
  0.000000000000000E+000  0.000000000000000E+000  0.000000000000000E+000
  0.000000000000000E+000  0.000000000000000E+000  0.000000000000000E+000
  0.000000000000000E+000  0.000000000000000E+000  0.000000000000000E+000
  0.000000000000000E+000  0.000000000000000E+000  0.000000000000000E+000
  0.000000000000000E+000  0.000000000000000E+000  0.000000000000000E+000
  0.000000000000000E+000  0.000000000000000E+000  0.000000000000000E+000
  0.000000000000000E+000  0.000000000000000E+000  0.000000000000000E+000