 Title = "Wing and Wake"
 VARIABLES = "X" "Y" "Z" "GAM" "skew"
 Zone I=   11 J=   26 K=1  T="Blade"
 DATAPACKING=BLOCK
 VARLOCATION=([4]=CELLCENTERED,[5]=CELLCENTERED)
 -5.942103902371774E-002 -6.957558310631427E-002 -7.973012718891119E-002
 -8.988467127150829E-002 -0.100039215354105      -0.110193759436702     
 -0.120348303519299      -0.130502847601896      -0.140657391684493     
 -0.150811935767089      -0.160966479849687      -6.259344954466592E-002
 -7.274799362726285E-002 -8.290253770985946E-002 -9.305708179245648E-002
 -0.103211625875054      -0.113366169957650      -0.123520714040247     
 -0.133675258122844      -0.143829802205441      -0.153984346288038     
 -0.164138890370635      -7.206065029848879E-002 -8.221519438108608E-002
 -9.236973846368278E-002 -0.102524282546280      -0.112678826628876     
 -0.122833370711474      -0.132987914794070      -0.143142458876667     
 -0.153297002959264      -0.163451547041861      -0.173606091124458     
 -8.767333787386819E-002 -9.782788195646459E-002 -0.107982426039062     
 -0.118136970121659      -0.128291514204255      -0.138446058286852     
 -0.148600602369449      -0.158755146452046      -0.168909690534643     
 -0.179064234617240      -0.189218778699837      -0.109185290861172     
 -0.119339834943768      -0.129494379026365      -0.139648923108962     
 -0.149803467191559      -0.159958011274156      -0.170112555356753     
 -0.180267099439349      -0.190421643521946      -0.200576187604543     
 -0.210730731687140      -0.136257252911172      -0.146411796993768     
 -0.156566341076365      -0.166720885158962      -0.176875429241559     
 -0.187029973324156      -0.197184517406752      -0.207339061489350     
 -0.217493605571946      -0.227648149654543      -0.237802693737140     
 -0.168462283010333      -0.178616827092930      -0.188771371175527     
 -0.198925915258124      -0.209080459340721      -0.219235003423318     
 -0.229389547505914      -0.239544091588512      -0.249698635671109     
 -0.259853179753705      -0.270007723836302      -0.205292488595641     
 -0.215447032678238      -0.225601576760836      -0.235756120843432     
 -0.245910664926029      -0.256065209008626      -0.266219753091223     
 -0.276374297173820      -0.286528841256416      -0.296683385339013     
 -0.306837929421611      -0.246167035323717      -0.256321579406314     
 -0.266476123488910      -0.276630667571508      -0.286785211654104     
 -0.296939755736701      -0.307094299819298      -0.317248843901894     
 -0.327403387984492      -0.337557932067089      -0.347712476149685     
 -0.290441307175387      -0.300595851257983      -0.310750395340580     
 -0.320904939423177      -0.331059483505774      -0.341214027588370     
 -0.351368571670968      -0.361523115753564      -0.371677659836162     
 -0.381832203918759      -0.391986748001355      -0.337417072435382     
 -0.347571616517979      -0.357726160600576      -0.367880704683173     
 -0.378035248765769      -0.388189792848366      -0.398344336930964     
 -0.408498881013560      -0.418653425096157      -0.428807969178754     
 -0.438962513261351      -0.386353495223591      -0.396508039306189     
 -0.406662583388785      -0.416817127471382      -0.426971671553979     
 -0.437126215636576      -0.447280759719173      -0.457435303801769     
 -0.467589847884366      -0.477744391966963      -0.487898936049560     
 -0.436478818919442      -0.446633363002041      -0.456787907084636     
 -0.466942451167234      -0.477096995249829      -0.487251539332427     
 -0.497406083415025      -0.507560627497621      -0.517715171580218     
 -0.527869715662814      -0.538024259745412      -0.487002537224835     
 -0.497157081307433      -0.507311625390030      -0.517466169472626     
 -0.527620713555222      -0.537775257637819      -0.547929801720416     
 -0.558084345803014      -0.568238889885611      -0.578393433968208     
 -0.588547978050804      -0.537127860920687      -0.547282405003283     
 -0.557436949085880      -0.567591493168477      -0.577746037251074     
 -0.587900581333671      -0.598055125416267      -0.608209669498865     
 -0.618364213581462      -0.628518757664058      -0.638673301746656     
 -0.586064283708896      -0.596218827791493      -0.606373371874090     
 -0.616527915956688      -0.626682460039284      -0.636837004121879     
 -0.646991548204476      -0.657146092287076      -0.667300636369672     
 -0.677455180452267      -0.687609724534865      -0.633040048968892     
 -0.643194593051488      -0.653349137134084      -0.663503681216682     
 -0.673658225299280      -0.683812769381876      -0.693967313464474     
 -0.704121857547070      -0.714276401629666      -0.724430945712264     
 -0.734585489794861      -0.677314320820561      -0.687468864903158     
 -0.697623408985756      -0.707777953068353      -0.717932497150949     
 -0.728087041233546      -0.738241585316142      -0.748396129398740     
 -0.758550673481336      -0.768705217563934      -0.778859761646530     
 -0.718188867548636      -0.728343411631233      -0.738497955713831     
 -0.748652499796428      -0.758807043879023      -0.768961587961620     
 -0.779116132044218      -0.789270676126815      -0.799425220209412     
 -0.809579764292008      -0.819734308374605      -0.755019073133944     
 -0.765173617216542      -0.775328161299139      -0.785482705381735     
 -0.795637249464333      -0.805791793546930      -0.815946337629526     
 -0.826100881712123      -0.836255425794718      -0.846409969877316     
 -0.856564513959913      -0.787224103233105      -0.797378647315704     
 -0.807533191398301      -0.817687735480896      -0.827842279563492     
 -0.837996823646091      -0.848151367728689      -0.858305911811285     
 -0.868460455893880      -0.878614999976478      -0.888769544059074     
 -0.814296065283105      -0.824450609365704      -0.834605153448300     
 -0.844759697530897      -0.854914241613492      -0.865068785696092     
 -0.875223329778687      -0.885377873861285      -0.895532417943882     
 -0.905686962026478      -0.915841506109077      -0.835808018270411     
 -0.845962562353007      -0.856117106435604      -0.866271650518200     
 -0.876426194600797      -0.886580738683394      -0.896735282765990     
 -0.906889826848588      -0.917044370931184      -0.927198915013782     
 -0.937353459096378      -0.851420705845789      -0.861575249928387     
 -0.871729794010983      -0.881884338093580      -0.892038882176176     
 -0.902193426258776      -0.912347970341369      -0.922502514423967     
 -0.932657058506565      -0.942811602589161      -0.952966146671757     
 -0.860887906599612      -0.871042450682209      -0.881196994764806     
 -0.891351538847403      -0.901506082930000      -0.911660627012594     
 -0.921815171095192      -0.931969715177789      -0.942124259260385     
 -0.952278803342983      -0.962433347425580      -0.864060317120561     
 -0.874214861203156      -0.884369405285754      -0.894523949368350     
 -0.904678493450947      -0.914833037533545      -0.924987581616140     
 -0.935142125698740      -0.945296669781337      -0.955451213863930     
 -0.965605757946530     
 -0.262275603997640      -0.246243415055754      -0.230211226113867     
 -0.214179037171980      -0.198146848230094      -0.182114659288207     
 -0.166082470346320      -0.150050281404434      -0.134018092462548     
 -0.117985903520661      -0.101953714578774      -0.264284960461678     
 -0.248252771519792      -0.232220582577905      -0.216188393636019     
 -0.200156204694132      -0.184124015752245      -0.168091826810359     
 -0.152059637868472      -0.136027448926586      -0.119995259984699     
 -0.103963071042813      -0.270281341102024      -0.254249152160137     
 -0.238216963218251      -0.222184774276364      -0.206152585334477     
 -0.190120396392591      -0.174088207450704      -0.158056018508818     
 -0.142023829566931      -0.125991640625045      -0.109959451683158     
 -0.280170179413915      -0.264137990472028      -0.248105801530142     
 -0.232073612588255      -0.216041423646368      -0.200009234704482     
 -0.183977045762595      -0.167944856820708      -0.151912667878822     
 -0.135880478936936      -0.119848289995049      -0.293795522509867     
 -0.277763333567979      -0.261731144626093      -0.245698955684206     
 -0.229666766742320      -0.213634577800433      -0.197602388858547     
 -0.181570199916660      -0.165538010974773      -0.149505822032887     
 -0.133473633091000      -0.310942490589870      -0.294910301647983     
 -0.278878112706096      -0.262845923764210      -0.246813734822323     
 -0.230781545880437      -0.214749356938550      -0.198717167996664     
 -0.182684979054777      -0.166652790112890      -0.150620601171004     
 -0.331340665724201      -0.315308476782315      -0.299276287840428     
 -0.283244098898542      -0.267211909956655      -0.251179721014769     
 -0.235147532072882      -0.219115343130996      -0.203083154189109     
 -0.187050965247223      -0.171018776305336      -0.354668356505714     
 -0.338636167563828      -0.322603978621942      -0.306571789680055     
 -0.290539600738168      -0.274507411796281      -0.258475222854395     
 -0.242443033912508      -0.226410844970621      -0.210378656028735     
 -0.194346467086849      -0.380557671315495      -0.364525482373609     
 -0.348493293431723      -0.332461104489836      -0.316428915547950     
 -0.300396726606063      -0.284364537664177      -0.268332348722290     
 -0.252300159780404      -0.236267970838517      -0.220235781896631     
 -0.408600320193470      -0.392568131251583      -0.376535942309696     
 -0.360503753367810      -0.344471564425923      -0.328439375484037     
 -0.312407186542151      -0.296374997600264      -0.280342808658377     
 -0.264310619716491      -0.248278430774604      -0.438354053814964     
 -0.422321864873077      -0.406289675931191      -0.390257486989304     
 -0.374225298047417      -0.358193109105530      -0.342160920163645     
 -0.326128731221756      -0.310096542279871      -0.294064353337984     
 -0.278032164396098      -0.469349638026747      -0.453317449084861     
 -0.437285260142973      -0.421253071201087      -0.405220882259201     
 -0.389188693317314      -0.373156504375428      -0.357124315433541     
 -0.341092126491654      -0.325059937549768      -0.309027748607882     
 -0.501098253949936      -0.485066065008051      -0.469033876066164     
 -0.453001687124277      -0.436969498182389      -0.420937309240504     
 -0.404905120298618      -0.388872931356730      -0.372840742414843     
 -0.356808553472958      -0.340776364531071      -0.533099206945720     
 -0.517067018003833      -0.501034829061946      -0.485002640120059     
 -0.468970451178172      -0.452938262236285      -0.436906073294399     
 -0.420873884352513      -0.404841695410627      -0.388809506468739     
 -0.372777317526853      -0.564847822868909      -0.548815633927022     
 -0.532783444985135      -0.516751256043249      -0.500719067101363     
 -0.484686878159476      -0.468654689217589      -0.452622500275703     
 -0.436590311333816      -0.420558122391929      -0.404525933450043     
 -0.595843407080691      -0.579811218138805      -0.563779029196919     
 -0.547746840255033      -0.531714651313145      -0.515682462371259     
 -0.499650273429372      -0.483618084487487      -0.467585895545600     
 -0.451553706603712      -0.435521517661827      -0.625597140702186     
 -0.609564951760300      -0.593532762818412      -0.577500573876525     
 -0.561468384934640      -0.545436195992753      -0.529404007050865     
 -0.513371818108979      -0.497339629167094      -0.481307440225206     
 -0.465275251283321      -0.653639789580159      -0.637607600638273     
 -0.621575411696386      -0.605543222754500      -0.589511033812613     
 -0.573478844870727      -0.557446655928840      -0.541414466986953     
 -0.525382278045066      -0.509350089103180      -0.493317900161294     
 -0.679529104389941      -0.663496915448054      -0.647464726506168     
 -0.631432537564282      -0.615400348622395      -0.599368159680508     
 -0.583335970738622      -0.567303781796735      -0.551271592854848     
 -0.535239403912962      -0.519207214971076      -0.702856795171454     
 -0.686824606229569      -0.670792417287680      -0.654760228345795     
 -0.638728039403909      -0.622695850462021      -0.606663661520135     
 -0.590631472578248      -0.574599283636361      -0.558567094694475     
 -0.542534905752588      -0.723254970305785      -0.707222781363899     
 -0.691190592422014      -0.675158403480126      -0.659126214538239     
 -0.643094025596353      -0.627061836654466      -0.611029647712581     
 -0.594997458770692      -0.578965269828806      -0.562933080886920     
 -0.740401938385789      -0.724369749443904      -0.708337560502015     
 -0.692305371560130      -0.676273182618242      -0.660240993676356     
 -0.644208804734470      -0.628176615792582      -0.612144426850698     
 -0.596112237908811      -0.580080048966923      -0.754027281481742     
 -0.737995092539855      -0.721962903597967      -0.705930714656079     
 -0.689898525714194      -0.673866336772309      -0.657834147830422     
 -0.641801958888535      -0.625769769946647      -0.609737581004763     
 -0.593705392062875      -0.763916119793632      -0.747883930851745     
 -0.731851741909860      -0.715819552967972      -0.699787364026086     
 -0.683755175084199      -0.667722986142313      -0.651690797200426     
 -0.635658608258540      -0.619626419316653      -0.603594230374765     
 -0.769912500433976      -0.753880311492091      -0.737848122550203     
 -0.721815933608318      -0.705783744666430      -0.689751555724543     
 -0.673719366782657      -0.657687177840771      -0.641654988898883     
 -0.625622799956998      -0.609590611015111      -0.771921856898014     
 -0.755889667956128      -0.739857479014242      -0.723825290072355     
 -0.707793101130469      -0.691760912188584      -0.675728723246696     
 -0.659696534304810      -0.643664345362923      -0.627632156421035     
 -0.611599967479150     
  1.660316899342888E-002  1.494285209408599E-002  1.328253519474311E-002
  1.162221829540022E-002  9.961901396057328E-003  8.301584496714441E-003
  6.641267597371552E-003  4.980950698028665E-003  3.320633798685776E-003
  1.660316899342887E-003  0.000000000000000E+000  1.660316899342888E-002
  1.494285209408599E-002  1.328253519474311E-002  1.162221829540022E-002
  9.961901396057328E-003  8.301584496714441E-003  6.641267597371552E-003
  4.980950698028665E-003  3.320633798685776E-003  1.660316899342887E-003
  0.000000000000000E+000  1.660316899342888E-002  1.494285209408599E-002
  1.328253519474311E-002  1.162221829540022E-002  9.961901396057328E-003
  8.301584496714441E-003  6.641267597371552E-003  4.980950698028665E-003
  3.320633798685776E-003  1.660316899342887E-003  0.000000000000000E+000
  1.660316899342888E-002  1.494285209408599E-002  1.328253519474311E-002
  1.162221829540022E-002  9.961901396057328E-003  8.301584496714441E-003
  6.641267597371552E-003  4.980950698028665E-003  3.320633798685776E-003
  1.660316899342887E-003  0.000000000000000E+000  1.660316899342888E-002
  1.494285209408599E-002  1.328253519474311E-002  1.162221829540022E-002
  9.961901396057328E-003  8.301584496714441E-003  6.641267597371552E-003
  4.980950698028665E-003  3.320633798685776E-003  1.660316899342887E-003
  0.000000000000000E+000  1.660316899342888E-002  1.494285209408599E-002
  1.328253519474311E-002  1.162221829540022E-002  9.961901396057328E-003
  8.301584496714441E-003  6.641267597371552E-003  4.980950698028665E-003
  3.320633798685776E-003  1.660316899342887E-003  0.000000000000000E+000
  1.660316899342888E-002  1.494285209408599E-002  1.328253519474311E-002
  1.162221829540022E-002  9.961901396057328E-003  8.301584496714441E-003
  6.641267597371552E-003  4.980950698028665E-003  3.320633798685776E-003
  1.660316899342887E-003  0.000000000000000E+000  1.660316899342888E-002
  1.494285209408599E-002  1.328253519474311E-002  1.162221829540022E-002
  9.961901396057328E-003  8.301584496714441E-003  6.641267597371552E-003
  4.980950698028665E-003  3.320633798685776E-003  1.660316899342887E-003
  0.000000000000000E+000  1.660316899342888E-002  1.494285209408599E-002
  1.328253519474311E-002  1.162221829540022E-002  9.961901396057328E-003
  8.301584496714441E-003  6.641267597371552E-003  4.980950698028665E-003
  3.320633798685776E-003  1.660316899342887E-003  0.000000000000000E+000
  1.660316899342888E-002  1.494285209408599E-002  1.328253519474311E-002
  1.162221829540022E-002  9.961901396057328E-003  8.301584496714441E-003
  6.641267597371552E-003  4.980950698028665E-003  3.320633798685776E-003
  1.660316899342887E-003  0.000000000000000E+000  1.660316899342888E-002
  1.494285209408599E-002  1.328253519474311E-002  1.162221829540022E-002
  9.961901396057328E-003  8.301584496714441E-003  6.641267597371552E-003
  4.980950698028665E-003  3.320633798685776E-003  1.660316899342887E-003
  0.000000000000000E+000  1.660316899342888E-002  1.494285209408599E-002
  1.328253519474311E-002  1.162221829540022E-002  9.961901396057328E-003
  8.301584496714441E-003  6.641267597371552E-003  4.980950698028665E-003
  3.320633798685776E-003  1.660316899342887E-003  0.000000000000000E+000
  1.660316899342888E-002  1.494285209408599E-002  1.328253519474311E-002
  1.162221829540022E-002  9.961901396057328E-003  8.301584496714441E-003
  6.641267597371552E-003  4.980950698028665E-003  3.320633798685776E-003
  1.660316899342887E-003  0.000000000000000E+000  1.660316899342888E-002
  1.494285209408599E-002  1.328253519474311E-002  1.162221829540022E-002
  9.961901396057328E-003  8.301584496714441E-003  6.641267597371552E-003
  4.980950698028665E-003  3.320633798685776E-003  1.660316899342887E-003
  0.000000000000000E+000  1.660316899342888E-002  1.494285209408599E-002
  1.328253519474311E-002  1.162221829540022E-002  9.961901396057328E-003
  8.301584496714441E-003  6.641267597371552E-003  4.980950698028665E-003
  3.320633798685776E-003  1.660316899342887E-003  0.000000000000000E+000
  1.660316899342888E-002  1.494285209408599E-002  1.328253519474311E-002
  1.162221829540022E-002  9.961901396057328E-003  8.301584496714441E-003
  6.641267597371552E-003  4.980950698028665E-003  3.320633798685776E-003
  1.660316899342887E-003  0.000000000000000E+000  1.660316899342888E-002
  1.494285209408599E-002  1.328253519474311E-002  1.162221829540022E-002
  9.961901396057328E-003  8.301584496714441E-003  6.641267597371552E-003
  4.980950698028665E-003  3.320633798685776E-003  1.660316899342887E-003
  0.000000000000000E+000  1.660316899342888E-002  1.494285209408599E-002
  1.328253519474311E-002  1.162221829540022E-002  9.961901396057328E-003
  8.301584496714441E-003  6.641267597371552E-003  4.980950698028665E-003
  3.320633798685776E-003  1.660316899342887E-003  0.000000000000000E+000
  1.660316899342888E-002  1.494285209408599E-002  1.328253519474311E-002
  1.162221829540022E-002  9.961901396057328E-003  8.301584496714441E-003
  6.641267597371552E-003  4.980950698028665E-003  3.320633798685776E-003
  1.660316899342887E-003  0.000000000000000E+000  1.660316899342888E-002
  1.494285209408599E-002  1.328253519474311E-002  1.162221829540022E-002
  9.961901396057328E-003  8.301584496714441E-003  6.641267597371552E-003
  4.980950698028665E-003  3.320633798685776E-003  1.660316899342887E-003
  0.000000000000000E+000  1.660316899342888E-002  1.494285209408599E-002
  1.328253519474311E-002  1.162221829540022E-002  9.961901396057328E-003
  8.301584496714441E-003  6.641267597371552E-003  4.980950698028665E-003
  3.320633798685776E-003  1.660316899342887E-003  0.000000000000000E+000
  1.660316899342888E-002  1.494285209408599E-002  1.328253519474311E-002
  1.162221829540022E-002  9.961901396057328E-003  8.301584496714441E-003
  6.641267597371552E-003  4.980950698028665E-003  3.320633798685776E-003
  1.660316899342887E-003  0.000000000000000E+000  1.660316899342888E-002
  1.494285209408599E-002  1.328253519474311E-002  1.162221829540022E-002
  9.961901396057328E-003  8.301584496714441E-003  6.641267597371552E-003
  4.980950698028665E-003  3.320633798685776E-003  1.660316899342887E-003
  0.000000000000000E+000  1.660316899342888E-002  1.494285209408599E-002
  1.328253519474311E-002  1.162221829540022E-002  9.961901396057328E-003
  8.301584496714441E-003  6.641267597371552E-003  4.980950698028665E-003
  3.320633798685776E-003  1.660316899342887E-003  0.000000000000000E+000
  1.660316899342888E-002  1.494285209408599E-002  1.328253519474311E-002
  1.162221829540022E-002  9.961901396057328E-003  8.301584496714441E-003
  6.641267597371552E-003  4.980950698028665E-003  3.320633798685776E-003
  1.660316899342887E-003  0.000000000000000E+000  1.660316899342888E-002
  1.494285209408599E-002  1.328253519474311E-002  1.162221829540022E-002
  9.961901396057328E-003  8.301584496714441E-003  6.641267597371552E-003
  4.980950698028665E-003  3.320633798685776E-003  1.660316899342887E-003
  0.000000000000000E+000
  1.790904024943145E-003  9.333878542761269E-003  1.827962359735284E-002
  2.786399794708466E-002  3.771974807151277E-002  4.740996057098145E-002
  5.597433637855710E-002  6.303390070744416E-002  6.807648892509054E-002
  7.051409461254668E-002  3.840089319139533E-003  1.614141921505758E-002
  3.075595545193621E-002  4.634834792987742E-002  6.229843200423996E-002
  7.791886330120830E-002  9.189111335970472E-002  0.103455704693274     
  0.111890093649382       0.116537373620271       8.366345354092230E-003
  2.450694419234304E-002  4.333352706258762E-002  6.319604550755871E-002
  8.322066366514751E-002  0.102588179214289       0.120137980042744     
  0.134857064437078       0.145896498205461       0.152421286819985     
  1.688323542976998E-002  3.685979026880699E-002  5.867393428409211E-002
  8.112100885220795E-002  0.103290202661489       0.124374376403112     
  0.143479789568566       0.159693640462718       0.172115621464381     
  0.179744365712319       3.113198296232252E-002  5.660575448898915E-002
  8.166593056759149E-002  0.106251193798735       0.129858289200797     
  0.151909500976960       0.171768863992540       0.188691481231195     
  0.201876482482681       0.210288510013285       5.187040169388198E-002
  8.560050359656707E-002  0.115479338571359       0.143073649744455     
  0.168560559345125       0.191752064126344       0.212311853149298     
  0.229782375149542       0.243528000022120       0.252484109849298     
  7.846841144967966E-002  0.123281688471902       0.159946434108598     
  0.192053558026691       0.220621235159231       0.245932469297678     
  0.267936322221658       0.286385252321234       0.300842836108704     
  0.310342627806054       0.109868501585808       0.168222344797918     
  0.213538040387016       0.251719384207927       0.284716474306517     
  0.313304831456435       0.337741809698316       0.357984841270741     
  0.373711021287753       0.383970167933749       0.145588120677744     
  0.219708819417339       0.275387701592830       0.321087692891128     
  0.359763151425707       0.392706597702970       0.420489497062236     
  0.443275589511306       0.460850200041903       0.472239285779158     
  0.185547067631864       0.277577678670585       0.345232591138881     
  0.399771796336311       0.445233140406451       0.483465435692714     
  0.515378483088043       0.541348216972736       0.561262724234647     
  0.574111092854398       0.229616499906073       0.341575759501151     
  0.422678557783812       0.487231139974367       0.540446286707738     
  0.584778153352273       0.621495206034286       0.651189255736006     
  0.673852086566236       0.688424543912265       0.277412953998684     
  0.411094958938250       0.506924857545196       0.582491315148044     
  0.644273633120766       0.695372732666480       0.737433529647405     
  0.771273413321634       0.796994876470777       0.813488797060188     
  0.328360824947852       0.485249716720636       0.596839546371279     
  0.684206220224864       0.755175558694914       0.813534757872662     
  0.861325189332135       0.899599540495040       0.928579674605059     
  0.947115278789998       0.381878443669456       0.563137864632690     
  0.691261182765890       0.790984842397533       0.871551084628077     
  0.937471694647180       0.991206472707546        1.03405815165594     
   1.06637814318480        1.08699116079557       0.437686372203906     
  0.644278486463615       0.789516257844395       0.901960482669481     
  0.992334302937229        1.06591674700410        1.12561938553957     
   1.17302081182147        1.20862515133870        1.23125596714693     
  0.496039149397829       0.728987820950701       0.891894639374267     
   1.01732506270540        1.11756145295303        1.19870358210145     
   1.26417150948850        1.31587390917332        1.35451551137307     
   1.37897423623174       0.558594935013420       0.819625134896664     
   1.00106541192691        1.13978436723972        1.24978843045659     
   1.33812152440665        1.40881455282889        1.46421185184123     
   1.50532581306716        1.53119907525790       0.635111074079298     
  0.928838335710935        1.13056201625903        1.28287172637034     
   1.40218205529315        1.49684872788588        1.57172430476492     
   1.62973009562026        1.67232338887911        1.69889036647499     
  0.761604554957129        1.09900443419807        1.32340697587678     
   1.48936084066736        1.61738582381070        1.71761640611483     
   1.79594998705468        1.85602121195912        1.89979826323980     
   1.92701549695365       0.935807603445739        1.32706344489186     
   1.57552836903999        1.75337468173221        1.88703574429217     
   1.98958716272881        2.06857437555775        2.12856394044039     
   2.17209629307100        2.19935246355599        1.01876328614471     
   1.43305158315683        1.68734217892479        1.86288019790906     
   1.99109498854034        2.08733554612892        2.16010203300873     
   2.21434636155508        2.25279103285298        2.27612791155323     
  0.985144115609289        1.37071789067334        1.59940416773573     
   1.75291977417455        1.86270724213742        1.94384773671354     
   2.00439098000392        2.04879394141506        2.07931776593970     
   2.09655001498474       0.863873368195884        1.17641602962739     
   1.35482874565643        1.47275959388457        1.55653064531533     
   1.61822984183662        1.66415858495524        1.69776877762186     
   1.72085993614507        1.73403591116214       0.664696800762672     
  0.876885393808311       0.996375938502764        1.07555981463415     
   1.13202033225698        1.17375884730551        1.20497538734746     
   1.22804993362460        1.24453803172661        1.25665615654072     
  0.404891155802649       0.523764771317289       0.591359913672959     
  0.636421294837823       0.668672241213198       0.692575067393325     
  0.710483272131389       0.723708743300141       0.732977616858052     
  0.738551629602526     
  0.000000000000000E+000  0.000000000000000E+000  0.000000000000000E+000
  0.000000000000000E+000  0.000000000000000E+000  0.000000000000000E+000
  0.000000000000000E+000  0.000000000000000E+000  0.000000000000000E+000
  0.000000000000000E+000  0.000000000000000E+000  0.000000000000000E+000
  0.000000000000000E+000  0.000000000000000E+000  0.000000000000000E+000
  0.000000000000000E+000  0.000000000000000E+000  0.000000000000000E+000
  0.000000000000000E+000  0.000000000000000E+000  0.000000000000000E+000
  0.000000000000000E+000  0.000000000000000E+000  0.000000000000000E+000
  0.000000000000000E+000  0.000000000000000E+000  0.000000000000000E+000
  0.000000000000000E+000  0.000000000000000E+000  0.000000000000000E+000
  0.000000000000000E+000  0.000000000000000E+000  0.000000000000000E+000
  0.000000000000000E+000  0.000000000000000E+000  0.000000000000000E+000
  0.000000000000000E+000  0.000000000000000E+000  0.000000000000000E+000
  0.000000000000000E+000  0.000000000000000E+000  0.000000000000000E+000
  0.000000000000000E+000  0.000000000000000E+000  0.000000000000000E+000
  0.000000000000000E+000  0.000000000000000E+000  0.000000000000000E+000
  0.000000000000000E+000  0.000000000000000E+000  0.000000000000000E+000
  0.000000000000000E+000  0.000000000000000E+000  0.000000000000000E+000
  0.000000000000000E+000  0.000000000000000E+000  0.000000000000000E+000
  0.000000000000000E+000  0.000000000000000E+000  0.000000000000000E+000
  0.000000000000000E+000  0.000000000000000E+000  0.000000000000000E+000
  0.000000000000000E+000  0.000000000000000E+000  0.000000000000000E+000
  0.000000000000000E+000  0.000000000000000E+000  0.000000000000000E+000
  0.000000000000000E+000  0.000000000000000E+000  0.000000000000000E+000
  0.000000000000000E+000  0.000000000000000E+000  0.000000000000000E+000
  0.000000000000000E+000  0.000000000000000E+000  0.000000000000000E+000
  0.000000000000000E+000  0.000000000000000E+000  0.000000000000000E+000
  0.000000000000000E+000  0.000000000000000E+000  0.000000000000000E+000
  0.000000000000000E+000  0.000000000000000E+000  0.000000000000000E+000
  0.000000000000000E+000  0.000000000000000E+000  0.000000000000000E+000
  0.000000000000000E+000  0.000000000000000E+000  0.000000000000000E+000
  0.000000000000000E+000  0.000000000000000E+000  0.000000000000000E+000
  0.000000000000000E+000  0.000000000000000E+000  0.000000000000000E+000
  0.000000000000000E+000  0.000000000000000E+000  0.000000000000000E+000
  0.000000000000000E+000  0.000000000000000E+000  0.000000000000000E+000
  0.000000000000000E+000  0.000000000000000E+000  0.000000000000000E+000
  0.000000000000000E+000  0.000000000000000E+000  0.000000000000000E+000
  0.000000000000000E+000  0.000000000000000E+000  0.000000000000000E+000
  0.000000000000000E+000  0.000000000000000E+000  0.000000000000000E+000