 Title = "Wing and Wake"
 VARIABLES = "X" "Y" "Z" "GAM" "skew"
 Zone I=   11 J=   26 K=1  T="Blade"
 DATAPACKING=BLOCK
 VARLOCATION=([4]=CELLCENTERED,[5]=CELLCENTERED)
 -0.244258969822493      -0.237720126953838      -0.231181284085184     
 -0.224642441216530      -0.218103598347875      -0.211564755479221     
 -0.205025912610567      -0.198487069741912      -0.191948226873258     
 -0.185409384004604      -0.178870541135949      -0.247784242830372     
 -0.241245399961717      -0.234706557093063      -0.228167714224409     
 -0.221628871355754      -0.215090028487100      -0.208551185618446     
 -0.202012342749791      -0.195473499881137      -0.188934657012483     
 -0.182395814143828      -0.258304466192778      -0.251765623324124     
 -0.245226780455470      -0.238687937586815      -0.232149094718161     
 -0.225610251849506      -0.219071408980852      -0.212532566112198     
 -0.205993723243544      -0.199454880374889      -0.192916037506235     
 -0.275653729702811      -0.269114886834156      -0.262576043965502     
 -0.256037201096848      -0.249498358228193      -0.242959515359539     
 -0.236420672490885      -0.229881829622230      -0.223342986753576     
 -0.216804143884922      -0.210265301016267      -0.299558425110968     
 -0.293019582242314      -0.286480739373659      -0.279941896505005     
 -0.273403053636351      -0.266864210767696      -0.260325367899042     
 -0.253786525030388      -0.247247682161733      -0.240708839293079     
 -0.234169996424425      -0.329641561090691      -0.323102718222036     
 -0.316563875353382      -0.310025032484728      -0.303486189616073     
 -0.296947346747419      -0.290408503878764      -0.283869661010110     
 -0.277330818141456      -0.270791975272802      -0.264253132404147     
 -0.365428708616784      -0.358889865748129      -0.352351022879475     
 -0.345812180010821      -0.339273337142167      -0.332734494273512     
 -0.326195651404858      -0.319656808536204      -0.313117965667549     
 -0.306579122798895      -0.300040279930240      -0.406355482994556     
 -0.399816640125902      -0.393277797257248      -0.386738954388593     
 -0.380200111519939      -0.373661268651284      -0.367122425782630     
 -0.360583582913976      -0.354044740045321      -0.347505897176667     
 -0.340967054308013      -0.451776444543599      -0.445237601674945     
 -0.438698758806290      -0.432159915937636      -0.425621073068982     
 -0.419082230200328      -0.412543387331673      -0.406004544463019     
 -0.399465701594365      -0.392926858725711      -0.386388015857056     
 -0.500975277567118      -0.494436434698463      -0.487897591829809     
 -0.481358748961155      -0.474819906092500      -0.468281063223846     
 -0.461742220355192      -0.455203377486537      -0.448664534617883     
 -0.442125691749229      -0.435586848880575      -0.553176087078373     
 -0.546637244209719      -0.540098401341065      -0.533559558472410     
 -0.527020715603756      -0.520481872735101      -0.513943029866447     
 -0.507404186997792      -0.500865344129139      -0.494326501260484     
 -0.487787658391830      -0.607555635128120      -0.601016792259466     
 -0.594477949390811      -0.587939106522156      -0.581400263653504     
 -0.574861420784849      -0.568322577916194      -0.561783735047540     
 -0.555244892178885      -0.548706049310231      -0.542167206441577     
 -0.663256323758846      -0.656717480890193      -0.650178638021538     
 -0.643639795152883      -0.637100952284229      -0.630562109415575     
 -0.624023266546921      -0.617484423678266      -0.610945580809612     
 -0.604406737940958      -0.597867895072304      -0.719399719836868     
 -0.712860876968214      -0.706322034099560      -0.699783191230906     
 -0.693244348362250      -0.686705505493596      -0.680166662624942     
 -0.673627819756288      -0.667088976887633      -0.660550134018980     
 -0.654011291150325      -0.775100408467595      -0.768561565598941     
 -0.762022722730286      -0.755483879861633      -0.748945036992978     
 -0.742406194124323      -0.735867351255669      -0.729328508387015     
 -0.722789665518361      -0.716250822649706      -0.709711979781053     
 -0.829479956517341      -0.822941113648687      -0.816402270780034     
 -0.809863427911380      -0.803324585042724      -0.796785742174070     
 -0.790246899305415      -0.783708056436763      -0.777169213568108     
 -0.770630370699452      -0.764091527830799      -0.881680766028597     
 -0.875141923159943      -0.868603080291288      -0.862064237422634     
 -0.855525394553980      -0.848986551685326      -0.842447708816671     
 -0.835908865948016      -0.829370023079363      -0.822831180210707     
 -0.816292337342054      -0.930879599052115      -0.924340756183461     
 -0.917801913314808      -0.911263070446153      -0.904724227577498     
 -0.898185384708844      -0.891646541840189      -0.885107698971535     
 -0.878568856102881      -0.872030013234227      -0.865491170365572     
 -0.976300560601158      -0.969761717732504      -0.963222874863850     
 -0.956684031995197      -0.950145189126542      -0.943606346257888     
 -0.937067503389233      -0.930528660520578      -0.923989817651924     
 -0.917450974783270      -0.910912131914616       -1.01722733497893     
  -1.01068849211028       -1.00414964924162      -0.997610806372968     
 -0.991071963504315      -0.984533120635659      -0.977994277767006     
 -0.971455434898351      -0.964916592029695      -0.958377749161042     
 -0.951838906292387       -1.05301448250502       -1.04647563963637     
  -1.03993679676772       -1.03339795389906       -1.02685911103041     
  -1.02032026816175       -1.01378142529310       -1.00724258242445     
  -1.00070373955579      -0.994164896687135      -0.987626053818481     
  -1.08309761848475       -1.07655877561609       -1.07001993274744     
  -1.06348108987878       -1.05694224701013       -1.05040340414147     
  -1.04386456127282       -1.03732571840417       -1.03078687553551     
  -1.02424803266686       -1.01770918979820       -1.10700231389291     
  -1.10046347102425       -1.09392462815560       -1.08738578528694     
  -1.08084694241829       -1.07430809954963       -1.06776925668098     
  -1.06123041381232       -1.05469157094367       -1.04815272807502     
  -1.04161388520636       -1.12435157740294       -1.11781273453428     
  -1.11127389166563       -1.10473504879697       -1.09819620592832     
  -1.09165736305967       -1.08511852019101       -1.07857967732236     
  -1.07204083445370       -1.06550199158505       -1.05896314871639     
  -1.13487180076534       -1.12833295789669       -1.12179411502803     
  -1.11525527215938       -1.10871642929073       -1.10217758642207     
  -1.09563874355342       -1.08909990068476       -1.08256105781611     
  -1.07602221494745       -1.06948337207880       -1.13839707377322     
  -1.13185823090457       -1.12531938803591       -1.11878054516726     
  -1.11224170229860       -1.10570285942995       -1.09916401656130     
  -1.09262517369264       -1.08608633082399       -1.07954748795533     
  -1.07300864508668     
 -0.112502924371947      -9.468749898458097E-002 -7.687207359721498E-002
 -5.905664820984894E-002 -4.124122282248293E-002 -2.342579743511692E-002
 -5.610372047751014E-003  1.220505333961495E-002  3.002047872698088E-002
  4.783590411434691E-002  6.565132950171289E-002 -0.111209034062486     
 -9.339360867512005E-002 -7.557818328775440E-002 -5.776275790038848E-002
 -3.994733251302235E-002 -2.213190712565657E-002 -4.316481738290546E-003
  1.349894364907534E-002  3.131436903644153E-002  4.912979442380735E-002
  6.694521981117331E-002 -0.107347768557218      -8.953234316985169E-002
 -7.171691778248591E-002 -5.390149239511975E-002 -3.608606700775383E-002
 -1.827064162038790E-002 -4.552162330218113E-004  1.736020915434396E-002
  3.517563454171016E-002  5.299105992907593E-002  7.080648531644190E-002
 -0.100980022319767      -8.316459693240127E-002 -6.534917154503514E-002
 -4.753374615766924E-002 -2.971832077030345E-002 -1.190289538293739E-002
  5.912530004428819E-003  2.372795539179457E-002  4.154338077916048E-002
  5.935880616652649E-002  7.717423155389228E-002 -9.220621851220656E-002
 -7.439079312484055E-002 -5.657536773747457E-002 -3.875994235010853E-002
 -2.094451696274260E-002 -3.129091575376536E-003  1.468633381198920E-002
  3.250175919935516E-002  5.031718458672118E-002  6.813260997408718E-002
  8.594803536145300E-002 -8.116472526179733E-002 -6.334929987443152E-002
 -4.553387448706538E-002 -2.771844909969972E-002 -9.903023712333526E-003
  7.912401675032316E-003  2.572782706239812E-002  4.354325244976406E-002
  6.135867783713014E-002  7.917410322449617E-002  9.698952861186219E-002
 -6.802967351296725E-002 -5.021424812560129E-002 -3.239882273823536E-002
 -1.458339735086931E-002  3.232028036496642E-003  2.104745342386248E-002
  3.886287881122833E-002  5.667830419859464E-002  7.449372958596072E-002
  9.230915497332635E-002  0.110124580360692      -5.300821087829437E-002
 -3.519278549092858E-002 -1.737736010356266E-002  4.380652838033853E-004
  1.825349067116912E-002  3.606891605853544E-002  5.388434144590128E-002
  7.169976683326727E-002  8.951519222063345E-002  0.107330617607999     
  0.125146042995365      -3.633723479691420E-002 -1.852180940954851E-002
 -7.063840221827422E-004  1.710904136518337E-002  3.492446675254893E-002
  5.273989213991506E-002  7.055531752728125E-002  8.837074291464690E-002
  0.106186168302013       0.124001593689379       0.141817019076745     
 -1.827965652038963E-002 -4.642311330237573E-004  1.735119425434217E-002
  3.516661964170786E-002  5.298204502907411E-002  7.079747041644008E-002
  8.861289580380580E-002  0.106428321191172       0.124243746578538     
  0.142059171965904       0.159874597353270       8.797451547848963E-004
  1.869517054215086E-002  3.651059592951693E-002  5.432602131688300E-002
  7.214144670424893E-002  8.995687209161471E-002  0.107772297478981     
  0.125587722866347       0.143403148253713       0.161218573641079     
  0.179033999028445       2.083881501892053E-002  3.865424040628671E-002
  5.646966579365290E-002  7.428509118101824E-002  9.210051656838476E-002
  0.109915941955751       0.127731367343116       0.145546792730483     
  0.163362218117848       0.181177643505214       0.198993068892580     
  4.128278661728918E-002  5.909821200465543E-002  7.691363739202085E-002
  9.472906277938693E-002  0.112544488166753       0.130359913554119     
  0.148175338941485       0.165990764328851       0.183806189716218     
  0.201621615103583       0.219437040490949       6.188924630514741E-002
  7.970467169251391E-002  9.752009707988003E-002  0.115335522467246     
  0.133150947854611       0.150966373241978       0.168781798629344     
  0.186597224016709       0.204412649404075       0.222228074791442     
  0.240043500178807       8.233321790351568E-002  0.100148643290882     
  0.117964068678248       0.135779494065614       0.153594919452980     
  0.171410344840346       0.189225770227712       0.207041195615078     
  0.224856621002444       0.242672046389810       0.260487471777176     
  0.102292287767652       0.120107713155018       0.137923138542384     
  0.155738563929750       0.173553989317116       0.191369414704482     
  0.209184840091847       0.227000265479214       0.244815690866580     
  0.262631116253945       0.280446541641311       0.121451689442827     
  0.139267114830192       0.157082540217559       0.174897965604924     
  0.192713390992290       0.210528816379656       0.228344241767023     
  0.246159667154389       0.263975092541754       0.281790517929120     
  0.299605943316486       0.139509267719351       0.157324693106717     
  0.175140118494083       0.192955543881450       0.210770969268815     
  0.228586394656181       0.246401820043547       0.264217245430913     
  0.282032670818279       0.299848096205645       0.317663521593011     
  0.156180243800731       0.173995669188097       0.191811094575463     
  0.209626519962830       0.227441945350195       0.245257370737561     
  0.263072796124927       0.280888221512293       0.298703646899659     
  0.316519072287025       0.334334497674390       0.171201706435404     
  0.189017131822770       0.206832557210136       0.224647982597502     
  0.242463407984867       0.260278833372234       0.278094258759600     
  0.295909684146966       0.313725109534331       0.331540534921698     
  0.349355960309063       0.184336758184234       0.202152183571601     
  0.219967608958966       0.237783034346332       0.255598459733697     
  0.273413885121064       0.291229310508430       0.309044735895796     
  0.326860161283162       0.344675586670528       0.362491012057894     
  0.195378251434643       0.213193676822010       0.231009102209376     
  0.248824527596741       0.266639952984107       0.284455378371473     
  0.302270803758839       0.320086229146206       0.337901654533571     
  0.355717079920937       0.373532505308304       0.204152055242204     
  0.221967480629570       0.239782906016936       0.257598331404302     
  0.275413756791668       0.293229182179033       0.311044607566399     
  0.328860032953766       0.346675458341131       0.364490883728498     
  0.382306309115864       0.210519801479654       0.228335226867021     
  0.246150652254387       0.263966077641753       0.281781503029118     
  0.299596928416485       0.317412353803849       0.335227779191216     
  0.353043204578582       0.370858629965949       0.388674055353314     
  0.214381066984923       0.232196492372289       0.250011917759655     
  0.267827343147021       0.285642768534387       0.303458193921753     
  0.321273619309118       0.339089044696484       0.356904470083850     
  0.374719895471216       0.392535320858582       0.215674957294384     
  0.233490382681749       0.251305808069116       0.269121233456482     
  0.286936658843847       0.304752084231213       0.322567509618579     
  0.340382935005947       0.358198360393312       0.376013785780677     
  0.393829211168044     
  1.660316899342888E-002  1.494285209408599E-002  1.328253519474311E-002
  1.162221829540022E-002  9.961901396057328E-003  8.301584496714441E-003
  6.641267597371552E-003  4.980950698028665E-003  3.320633798685776E-003
  1.660316899342887E-003  0.000000000000000E+000  1.660316899342888E-002
  1.494285209408599E-002  1.328253519474311E-002  1.162221829540022E-002
  9.961901396057328E-003  8.301584496714441E-003  6.641267597371552E-003
  4.980950698028665E-003  3.320633798685776E-003  1.660316899342887E-003
  0.000000000000000E+000  1.660316899342888E-002  1.494285209408599E-002
  1.328253519474311E-002  1.162221829540022E-002  9.961901396057328E-003
  8.301584496714441E-003  6.641267597371552E-003  4.980950698028665E-003
  3.320633798685776E-003  1.660316899342887E-003  0.000000000000000E+000
  1.660316899342888E-002  1.494285209408599E-002  1.328253519474311E-002
  1.162221829540022E-002  9.961901396057328E-003  8.301584496714441E-003
  6.641267597371552E-003  4.980950698028665E-003  3.320633798685776E-003
  1.660316899342887E-003  0.000000000000000E+000  1.660316899342888E-002
  1.494285209408599E-002  1.328253519474311E-002  1.162221829540022E-002
  9.961901396057328E-003  8.301584496714441E-003  6.641267597371552E-003
  4.980950698028665E-003  3.320633798685776E-003  1.660316899342887E-003
  0.000000000000000E+000  1.660316899342888E-002  1.494285209408599E-002
  1.328253519474311E-002  1.162221829540022E-002  9.961901396057328E-003
  8.301584496714441E-003  6.641267597371552E-003  4.980950698028665E-003
  3.320633798685776E-003  1.660316899342887E-003  0.000000000000000E+000
  1.660316899342888E-002  1.494285209408599E-002  1.328253519474311E-002
  1.162221829540022E-002  9.961901396057328E-003  8.301584496714441E-003
  6.641267597371552E-003  4.980950698028665E-003  3.320633798685776E-003
  1.660316899342887E-003  0.000000000000000E+000  1.660316899342888E-002
  1.494285209408599E-002  1.328253519474311E-002  1.162221829540022E-002
  9.961901396057328E-003  8.301584496714441E-003  6.641267597371552E-003
  4.980950698028665E-003  3.320633798685776E-003  1.660316899342887E-003
  0.000000000000000E+000  1.660316899342888E-002  1.494285209408599E-002
  1.328253519474311E-002  1.162221829540022E-002  9.961901396057328E-003
  8.301584496714441E-003  6.641267597371552E-003  4.980950698028665E-003
  3.320633798685776E-003  1.660316899342887E-003  0.000000000000000E+000
  1.660316899342888E-002  1.494285209408599E-002  1.328253519474311E-002
  1.162221829540022E-002  9.961901396057328E-003  8.301584496714441E-003
  6.641267597371552E-003  4.980950698028665E-003  3.320633798685776E-003
  1.660316899342887E-003  0.000000000000000E+000  1.660316899342888E-002
  1.494285209408599E-002  1.328253519474311E-002  1.162221829540022E-002
  9.961901396057328E-003  8.301584496714441E-003  6.641267597371552E-003
  4.980950698028665E-003  3.320633798685776E-003  1.660316899342887E-003
  0.000000000000000E+000  1.660316899342888E-002  1.494285209408599E-002
  1.328253519474311E-002  1.162221829540022E-002  9.961901396057328E-003
  8.301584496714441E-003  6.641267597371552E-003  4.980950698028665E-003
  3.320633798685776E-003  1.660316899342887E-003  0.000000000000000E+000
  1.660316899342888E-002  1.494285209408599E-002  1.328253519474311E-002
  1.162221829540022E-002  9.961901396057328E-003  8.301584496714441E-003
  6.641267597371552E-003  4.980950698028665E-003  3.320633798685776E-003
  1.660316899342887E-003  0.000000000000000E+000  1.660316899342888E-002
  1.494285209408599E-002  1.328253519474311E-002  1.162221829540022E-002
  9.961901396057328E-003  8.301584496714441E-003  6.641267597371552E-003
  4.980950698028665E-003  3.320633798685776E-003  1.660316899342887E-003
  0.000000000000000E+000  1.660316899342888E-002  1.494285209408599E-002
  1.328253519474311E-002  1.162221829540022E-002  9.961901396057328E-003
  8.301584496714441E-003  6.641267597371552E-003  4.980950698028665E-003
  3.320633798685776E-003  1.660316899342887E-003  0.000000000000000E+000
  1.660316899342888E-002  1.494285209408599E-002  1.328253519474311E-002
  1.162221829540022E-002  9.961901396057328E-003  8.301584496714441E-003
  6.641267597371552E-003  4.980950698028665E-003  3.320633798685776E-003
  1.660316899342887E-003  0.000000000000000E+000  1.660316899342888E-002
  1.494285209408599E-002  1.328253519474311E-002  1.162221829540022E-002
  9.961901396057328E-003  8.301584496714441E-003  6.641267597371552E-003
  4.980950698028665E-003  3.320633798685776E-003  1.660316899342887E-003
  0.000000000000000E+000  1.660316899342888E-002  1.494285209408599E-002
  1.328253519474311E-002  1.162221829540022E-002  9.961901396057328E-003
  8.301584496714441E-003  6.641267597371552E-003  4.980950698028665E-003
  3.320633798685776E-003  1.660316899342887E-003  0.000000000000000E+000
  1.660316899342888E-002  1.494285209408599E-002  1.328253519474311E-002
  1.162221829540022E-002  9.961901396057328E-003  8.301584496714441E-003
  6.641267597371552E-003  4.980950698028665E-003  3.320633798685776E-003
  1.660316899342887E-003  0.000000000000000E+000  1.660316899342888E-002
  1.494285209408599E-002  1.328253519474311E-002  1.162221829540022E-002
  9.961901396057328E-003  8.301584496714441E-003  6.641267597371552E-003
  4.980950698028665E-003  3.320633798685776E-003  1.660316899342887E-003
  0.000000000000000E+000  1.660316899342888E-002  1.494285209408599E-002
  1.328253519474311E-002  1.162221829540022E-002  9.961901396057328E-003
  8.301584496714441E-003  6.641267597371552E-003  4.980950698028665E-003
  3.320633798685776E-003  1.660316899342887E-003  0.000000000000000E+000
  1.660316899342888E-002  1.494285209408599E-002  1.328253519474311E-002
  1.162221829540022E-002  9.961901396057328E-003  8.301584496714441E-003
  6.641267597371552E-003  4.980950698028665E-003  3.320633798685776E-003
  1.660316899342887E-003  0.000000000000000E+000  1.660316899342888E-002
  1.494285209408599E-002  1.328253519474311E-002  1.162221829540022E-002
  9.961901396057328E-003  8.301584496714441E-003  6.641267597371552E-003
  4.980950698028665E-003  3.320633798685776E-003  1.660316899342887E-003
  0.000000000000000E+000  1.660316899342888E-002  1.494285209408599E-002
  1.328253519474311E-002  1.162221829540022E-002  9.961901396057328E-003
  8.301584496714441E-003  6.641267597371552E-003  4.980950698028665E-003
  3.320633798685776E-003  1.660316899342887E-003  0.000000000000000E+000
  1.660316899342888E-002  1.494285209408599E-002  1.328253519474311E-002
  1.162221829540022E-002  9.961901396057328E-003  8.301584496714441E-003
  6.641267597371552E-003  4.980950698028665E-003  3.320633798685776E-003
  1.660316899342887E-003  0.000000000000000E+000  1.660316899342888E-002
  1.494285209408599E-002  1.328253519474311E-002  1.162221829540022E-002
  9.961901396057328E-003  8.301584496714441E-003  6.641267597371552E-003
  4.980950698028665E-003  3.320633798685776E-003  1.660316899342887E-003
  0.000000000000000E+000
  3.636021744518485E-002  5.483823360266397E-002  7.015248697602282E-002
  8.371824533254876E-002  9.592362702939354E-002  0.106774686238684     
  0.116267850949998       0.124277195676264       0.130648921295667     
  0.135322521360621       6.063293909419775E-002  9.250695422092049E-002
  0.118608056892537       0.141585994579759       0.162140930368204     
  0.180321033076161       0.196147267829384       0.209482473204621     
  0.220232622809125       0.228634989481485       8.162847301893526E-002
  0.126641602986111       0.163092597927180       0.194864161916995     
  0.222995600603317       0.247696430782260       0.268987468620631     
  0.286788758267630       0.301038919496920       0.311492255882843     
  9.782000475747075E-002  0.152991776849428       0.197631037921874     
  0.236302866284832       0.270239141166377       0.299766822059822     
  0.324900183788977       0.345573355068780       0.361779579089097     
  0.373021018128633       0.109948873839226       0.171973002549026     
  0.222026405919425       0.265193752383396       0.302862349718471     
  0.335447709855880       0.363034644267687       0.385520320130990     
  0.402719520819802       0.414062910079128       0.120081279865222     
  0.186829332069575       0.240182496357296       0.285895860133741     
  0.325625262287498       0.359895263360375       0.388837168639604     
  0.412406852323908       0.430396400478843       0.442015621296731     
  0.131782902064632       0.203261071621783       0.259466504864128     
  0.307096786696266       0.348233703379547       0.383655911671585     
  0.413643309747712       0.438193036942430       0.457005944314795     
  0.469112632244203       0.148741001955402       0.227078389576025     
  0.287414667208923       0.337819063296031       0.380971825698938     
  0.417979996398475       0.449288489215059       0.474967141947664     
  0.494718437872042       0.507464230227843       0.172995528612844     
  0.261533043159736       0.328277397345561       0.383155466426329     
  0.429604137439478       0.469131015539541       0.502412588484680     
  0.529646865736272       0.550590141070663       0.564106333405598     
  0.204629865142267       0.306881198918413       0.382511662218868     
  0.443772713269126       0.495019871335844       0.538232520447140     
  0.574366390400716       0.603793770208968       0.626352968220099     
  0.640890293617777       0.242766194634622       0.361906749264775     
  0.448709241312997       0.518138336642406       0.575610046374224     
  0.623650490929670       0.663539260320153       0.695848146224185     
  0.720523409786360       0.736391083280417       0.286385593448297     
  0.425099715353261       0.525003592432805       0.604110335121893     
  0.669021286050590       0.722869254952157       0.767294699066715     
  0.803092130629958       0.830319019597787       0.847773504141936     
  0.334628906645742       0.495143110221224       0.609726721354610     
  0.699726673018203       0.773038454001980       0.833463472098141     
  0.883031720950698       0.922771848817778       0.952865643592382     
  0.972089002509431       0.387060871357667       0.571304565172673     
  0.701873020756486       0.803726990052235       0.886167943476845     
  0.953722449330643        1.00884499722357        1.05282257266642     
   1.08597783999535        1.10707732008576       0.443920583529108     
  0.653784716462910       0.801516835884033       0.916009336303903     
   1.00809761904734        1.08311181762682        1.14398739174636     
   1.19230911078230        1.22857114889275        1.25155739879787     
  0.506235727168237       0.743875262595214       0.909956791355318     
   1.03773169941990        1.13975691958304        1.22227862207242     
   1.28880447694779        1.34129398128383        1.38047319622435     
   1.40520457061514       0.576801351713232       0.845103539409428     
   1.03079927168617        1.17224301091343        1.28406808426868     
   1.37365188508961        1.44521749796469        1.50122101627432     
   1.54273333430014        1.56880640677013       0.664469395013894     
  0.968062474446145        1.17455746198421        1.32933677948713     
   1.44995321778025        1.54533484718215        1.62063352281068     
   1.67892044142968        1.72171942363270        1.74842782769727     
  0.781599411267026        1.12609759057225        1.35342903614407     
   1.51986081904474        1.64720813650519        1.74642289992398     
   1.82376741105667        1.88300141768157        1.92612808356527     
   1.95293385819112       0.894263045685002        1.27448790472039     
   1.51730177374778        1.69014979022771        1.81936908353363     
   1.91815172451432        1.99397536434734        2.05129334243389     
   2.09255876181924        2.11802546455668       0.933376767753212     
   1.31898694945991        1.55799178030116        1.72332220808891     
   1.84383311260484        1.93401117673122        2.00192819406934     
   2.05225014623090        2.08751393668491        2.10839918858676     
  0.892941336854817        1.24542831247529        1.45590009106261     
   1.59765520967759        1.69904926877015        1.77383753930817     
   1.82941910287182        1.86989972938893        1.89736978455631     
   1.91243114276210       0.783316630132529        1.06757051174742     
   1.23041253115336        1.33827866333843        1.41489814674175     
   1.47121507946663        1.51296564957678        1.54330719930959     
   1.56390864567696        1.57540930066712       0.604131132045264     
  0.796848457316058       0.905562500591159       0.977691399615673     
   1.02909856319827        1.06701533424450        1.09525393874937     
   1.11598828701735        1.13065918085515        1.14135351453709     
  0.368434530342144       0.476351496307507       0.537790959371116     
  0.578785037149505       0.608106680347812       0.629786755000899     
  0.645960280366222       0.657825634470482       0.666058170121353     
  0.670936846761231     
  0.000000000000000E+000  0.000000000000000E+000  0.000000000000000E+000
  0.000000000000000E+000  0.000000000000000E+000  0.000000000000000E+000
  0.000000000000000E+000  0.000000000000000E+000  0.000000000000000E+000
  0.000000000000000E+000  0.000000000000000E+000  0.000000000000000E+000
  0.000000000000000E+000  0.000000000000000E+000  0.000000000000000E+000
  0.000000000000000E+000  0.000000000000000E+000  0.000000000000000E+000
  0.000000000000000E+000  0.000000000000000E+000  0.000000000000000E+000
  0.000000000000000E+000  0.000000000000000E+000  0.000000000000000E+000
  0.000000000000000E+000  0.000000000000000E+000  0.000000000000000E+000
  0.000000000000000E+000  0.000000000000000E+000  0.000000000000000E+000
  0.000000000000000E+000  0.000000000000000E+000  0.000000000000000E+000
  0.000000000000000E+000  0.000000000000000E+000  0.000000000000000E+000
  0.000000000000000E+000  0.000000000000000E+000  0.000000000000000E+000
  0.000000000000000E+000  0.000000000000000E+000  0.000000000000000E+000
  0.000000000000000E+000  0.000000000000000E+000  0.000000000000000E+000
  0.000000000000000E+000  0.000000000000000E+000  0.000000000000000E+000
  0.000000000000000E+000  0.000000000000000E+000  0.000000000000000E+000
  0.000000000000000E+000  0.000000000000000E+000  0.000000000000000E+000
  0.000000000000000E+000  0.000000000000000E+000  0.000000000000000E+000
  0.000000000000000E+000  0.000000000000000E+000  0.000000000000000E+000
  0.000000000000000E+000  0.000000000000000E+000  0.000000000000000E+000
  0.000000000000000E+000  0.000000000000000E+000  0.000000000000000E+000
  0.000000000000000E+000  0.000000000000000E+000  0.000000000000000E+000
  0.000000000000000E+000  0.000000000000000E+000  0.000000000000000E+000
  0.000000000000000E+000  0.000000000000000E+000  0.000000000000000E+000
  0.000000000000000E+000  0.000000000000000E+000  0.000000000000000E+000
  0.000000000000000E+000  0.000000000000000E+000  0.000000000000000E+000
  0.000000000000000E+000  0.000000000000000E+000  0.000000000000000E+000
  0.000000000000000E+000  0.000000000000000E+000  0.000000000000000E+000
  0.000000000000000E+000  0.000000000000000E+000  0.000000000000000E+000
  0.000000000000000E+000  0.000000000000000E+000  0.000000000000000E+000
  0.000000000000000E+000  0.000000000000000E+000  0.000000000000000E+000
  0.000000000000000E+000  0.000000000000000E+000  0.000000000000000E+000
  0.000000000000000E+000  0.000000000000000E+000  0.000000000000000E+000
  0.000000000000000E+000  0.000000000000000E+000  0.000000000000000E+000
  0.000000000000000E+000  0.000000000000000E+000  0.000000000000000E+000
  0.000000000000000E+000  0.000000000000000E+000  0.000000000000000E+000
  0.000000000000000E+000  0.000000000000000E+000  0.000000000000000E+000
  0.000000000000000E+000  0.000000000000000E+000  0.000000000000000E+000