 Title = "Wing and Wake"
 VARIABLES = "X" "Y" "Z" "GAM" "skew"
 Zone I=   11 J=   26 K=1  T="Blade"
 DATAPACKING=BLOCK
 VARLOCATION=([4]=CELLCENTERED,[5]=CELLCENTERED)
  0.244243264083078       0.237706907987149       0.231170551891220     
  0.224634195795292       0.218097839699363       0.211561483603434     
  0.205025127507505       0.198488771411577       0.191952415315648     
  0.185416059219719       0.178879703123791       0.247768717660145     
  0.241232361564216       0.234696005468287       0.228159649372359     
  0.221623293276430       0.215086937180502       0.208550581084573     
  0.202014224988644       0.195477868892716       0.188941512796787     
  0.182405156700858       0.258289479882432       0.251753123786504     
  0.245216767690576       0.238680411594646       0.232144055498718     
  0.225607699402789       0.219071343306861       0.212534987210932     
  0.205998631115003       0.199462275019075       0.192925918923146     
  0.275639632044897       0.269103275948968       0.262566919853040     
  0.256030563757111       0.249494207661182       0.242957851565254     
  0.236421495469324       0.229885139373396       0.223348783277468     
  0.216812427181539       0.210276071085610       0.299545551883457     
  0.293009195787528       0.286472839691599       0.279936483595671     
  0.273400127499742       0.266863771403813       0.260327415307885     
  0.253791059211956       0.247254703116027       0.240718347020098     
  0.234181990924170       0.329630228761554       0.323093872665625     
  0.316557516569696       0.310021160473767       0.303484804377839     
  0.296948448281910       0.290412092185981       0.283875736090053     
  0.277339379994124       0.270803023898196       0.264266667802267     
  0.365419209353106       0.358882853257177       0.352346497161248     
  0.345810141065320       0.339273784969391       0.332737428873462     
  0.326201072777533       0.319664716681605       0.313128360585676     
  0.306592004489748       0.300055648393818       0.406348080054883     
  0.399811723958955       0.393275367863026       0.386739011767097     
  0.380202655671169       0.373666299575240       0.367129943479311     
  0.360593587383383       0.354057231287453       0.347520875191525     
  0.340984519095597       0.451771368126196       0.445235012030268     
  0.438698655934339       0.432162299838411       0.425625943742482     
  0.419089587646553       0.412553231550624       0.406016875454695     
  0.399480519358768       0.392944163262839       0.386407807166910     
  0.500972721179605       0.494436365083675       0.487900008987746     
  0.481363652891818       0.474827296795889       0.468290940699961     
  0.461754584604033       0.455218228508104       0.448681872412175     
  0.442145516316247       0.435609160220317       0.553176204485991     
  0.546639848390063       0.540103492294134       0.533567136198206     
  0.527030780102276       0.520494424006347       0.513958067910419     
  0.507421711814489       0.500885355718562       0.494348999622634     
  0.487812643526704       0.607558537928765       0.601022181832837     
  0.594485825736906       0.587949469640979       0.581413113545050     
  0.574876757449122       0.568340401353193       0.561804045257264     
  0.555267689161335       0.548731333065407       0.542194976969478     
  0.663262079623101       0.656725723527176       0.650189367431245     
  0.643653011335317       0.637116655239386       0.630580299143460     
  0.624043943047532       0.617507586951602       0.610971230855673     
  0.604434874759745       0.597898518663816       0.719408351440802     
  0.712871995344873       0.706335639248945       0.699799283153016     
  0.693262927057087       0.686726570961158       0.680190214865229     
  0.673653858769301       0.667117502673373       0.660581146577444     
  0.654044790481515       0.775111893135139       0.768575537039211     
  0.762039180943281       0.755502824847354       0.748966468751425     
  0.742430112655496       0.735893756559567       0.729357400463639     
  0.722821044367710       0.716284688271781       0.709748332175854     
  0.829494226577914       0.822957870481984       0.816421514386057     
  0.809885158290129       0.803348802194198       0.796812446098269     
  0.790276090002342       0.783739733906415       0.777203377810485     
  0.770667021714555       0.764130665618628       0.881697709884300     
  0.875161353788372       0.868624997692442       0.862088641596514     
  0.855552285500585       0.849015929404657       0.842479573308728     
  0.835943217212799       0.829406861116871       0.822870505020942     
  0.816334148925015       0.930899062937707       0.924362706841780     
  0.917826350745851       0.911289994649922       0.904753638553993     
  0.898217282458065       0.891680926362136       0.885144570266208     
  0.878608214170278       0.872071858074351       0.865535501978421     
  0.976322351009021       0.969785994913092       0.963249638817165     
  0.956713282721236       0.950176926625307       0.943640570529378     
  0.937104214433449       0.930567858337521       0.924031502241592     
  0.917495146145663       0.910958790049734        1.01725122171080     
   1.01071486561487        1.00417850951894       0.997642153423014     
  0.991105797327085       0.984569441231156       0.978033085135227     
  0.971496729039298       0.964960372943368       0.958424016847441     
  0.951887660751512        1.05304020230235        1.04650384620642     
   1.03996749011050        1.03343113401456        1.02689477791863     
   1.02035842182271        1.01382206572678        1.00728570963085     
   1.00074935353492       0.994212997438991       0.987676641343063     
   1.08312487918045        1.07658852308452        1.07005216698859     
   1.06351581089266        1.05697945479673        1.05044309870081     
   1.04390674260487        1.03737038650895        1.03083403041302     
   1.02429767431709        1.01776131822116        1.10703079901901     
   1.10049444292308        1.09395808682715        1.08742173073122     
   1.08088537463529        1.07434901853936        1.06781266244344     
   1.06127630634751        1.05473995025158        1.04820359415565     
   1.04166723805972        1.12438095118147        1.11784459508554     
   1.11130823898962        1.10477188289369        1.09823552679776     
   1.09169917070183        1.08516281460590        1.07862645850997     
   1.07209010241404        1.06555374631811        1.05901739022218     
   1.13490171340376        1.12836535730783        1.12182900121190     
   1.11529264511597        1.10875628902004        1.10221993292411     
   1.09568357682819        1.08914722073226        1.08261086463633     
   1.07607450854040        1.06953815244447        1.13842716698083     
   1.13189081088490        1.12535445478897        1.11881809869304     
   1.11228174259711        1.10574538650118        1.09920903040525     
   1.09267267430933        1.08613631821340        1.07959996211747     
   1.07306360602154     
  0.112537017381077       9.472067946384598E-002  7.690434154661474E-002
  5.908800362938347E-002  4.127166571215245E-002  2.345532779492084E-002
  5.638989877689871E-003 -1.217734803954127E-002 -2.999368595677235E-002
 -4.781002387400347E-002 -6.562636179123467E-002  0.111243619148149     
  9.342728123091830E-002  7.561094331368766E-002  5.779460539645653E-002
  3.997826747922516E-002  2.216192956199420E-002  4.345591644762889E-003
 -1.347074627246812E-002 -3.128708418969950E-002 -4.910342210693034E-002
 -6.691976002416185E-002  0.107383822112141       8.956748419490949E-002
  7.175114627767870E-002  5.393480836044719E-002  3.611847044321601E-002
  1.830213252598485E-002  4.857946087534900E-004 -1.733054330847734E-002
 -3.514688122570869E-002 -5.296321914293970E-002 -7.077955706017063E-002
  0.101018497578038       8.320215966080696E-002  6.538582174357573E-002
  4.756948382634462E-002  2.975314590911349E-002  1.193680799188247E-002
 -5.879529925349067E-003 -2.369586784257988E-002 -4.151220575981092E-002
 -5.932854367704222E-002 -7.714488159427300E-002  9.224803051620561E-002
  7.443169259897464E-002  5.661535468174332E-002  3.879901676451186E-002
  2.098267884728091E-002  3.166340930049561E-003 -1.464999698718128E-002
 -3.246633490441241E-002 -5.028267282164349E-002 -6.809901073887475E-002
 -8.591534865610573E-002  8.121073643143133E-002  6.339439851420016E-002
  4.557806059696924E-002  2.776172267973796E-002  9.945384762506733E-003
 -7.870953154724261E-003 -2.568729107195561E-002 -4.350362898918642E-002
 -6.131996690641783E-002 -7.913630482364913E-002 -9.695264274088042E-002
  6.808068004479216E-002  5.026434212756096E-002  3.244800421032998E-002
  1.463166629309862E-002 -3.184671624132537E-003 -2.100100954136366E-002
 -3.881734745859447E-002 -5.663368537582624E-002 -7.445002329305747E-002
 -9.226636121028785E-002 -0.110082699127519       5.306493018902050E-002
  3.524859227178988E-002  1.743225435455837E-002 -3.840835626729137E-004
 -1.820042147990393E-002 -3.601675939713537E-002 -5.383309731436629E-002
 -7.164943523159732E-002 -8.946577314882859E-002 -0.107282111066060     
 -0.125098448983291       3.640029420931602E-002  1.858395629208524E-002
  7.676183748543601E-004 -1.704871954237692E-002 -3.486505745960790E-002
 -5.268139537683903E-002 -7.049773329407036E-002 -8.831407121130100E-002
 -0.106130409128533      -0.123946747045764      -0.141763084962994     
  1.834958337005099E-002  5.332454528195711E-004 -1.728309246441133E-002
 -3.509943038164218E-002 -5.291576829887353E-002 -7.073210621610426E-002
 -8.854844413333599E-002 -0.106364782050567      -0.124181119967798     
 -0.141997457885029      -0.159813795802260      -8.025318358684161E-004
 -1.861886975309946E-002 -3.643520767033134E-002 -5.425154558756272E-002
 -7.206788350479319E-002 -8.988422142202440E-002 -0.107700559339255     
 -0.125516897256487      -0.143333235173718      -0.161149573090949     
 -0.178965911008180      -2.075401111072592E-002 -3.857034902795804E-002
 -5.638668694518940E-002 -7.420302486242009E-002 -9.201936277965148E-002
 -0.109835700696883      -0.127652038614113      -0.145468376531345     
 -0.163284714448575      -0.181101052365807      -0.198917390283038     
 -4.119020770792201E-002 -5.900654562515390E-002 -7.682288354238405E-002
 -9.463922145961556E-002 -0.112455559376847      -0.130271897294077     
 -0.148088235211309      -0.165904573128540      -0.183720911045772     
 -0.201537248963002      -0.219353586880233      -6.178883059912486E-002
 -7.960516851635623E-002 -9.742150643358796E-002 -0.115237844350819     
 -0.133054182268049      -0.150870520185281      -0.168686858102512     
 -0.186503196019744      -0.204319533936974      -0.222135871854206     
 -0.239952209771436      -8.222502719632040E-002 -0.100041365113552     
 -0.117857703030783      -0.135674040948014      -0.153490378865244     
 -0.171306716782476      -0.189123054699707      -0.206939392616939     
 -0.224755730534170      -0.242572068451400      -0.260388406368632     
 -0.102176506471179      -0.119992844388410      -0.137809182305642     
 -0.155625520222873      -0.173441858140103      -0.191258196057334     
 -0.209074533974564      -0.226890871891797      -0.244707209809028     
 -0.262523547726259      -0.280339885643490      -0.121328621677098     
 -0.139144959594329      -0.156961297511560      -0.174777635428792     
 -0.192593973346023      -0.210410311263253      -0.228226649180486     
 -0.246042987097716      -0.263859325014946      -0.281675662932179     
 -0.299492000849410      -0.139379332516364      -0.157195670433594     
 -0.175012008350827      -0.192828346268058      -0.210644684185288     
 -0.228461022102520      -0.246277360019751      -0.264093697936982     
 -0.281910035854213      -0.299726373771444      -0.317542711688674     
 -0.156043968496067      -0.173860306413299      -0.191676644330530     
 -0.209492982247762      -0.227309320164991      -0.245125658082223     
 -0.262941995999455      -0.280758333916686      -0.298574671833918     
 -0.316391009751148      -0.334207347668379      -0.171059718351838     
 -0.188876056269070      -0.206692394186302      -0.224508732103532     
 -0.242325070020764      -0.260141407937996      -0.277957745855226     
 -0.295774083772458      -0.313590421689688      -0.331406759606920     
 -0.349223097524149      -0.184189774738477      -0.202006112655710     
 -0.219822450572941      -0.237638788490171      -0.255455126407402     
 -0.273271464324633      -0.291087802241865      -0.308904140159097     
 -0.326720478076327      -0.344536815993558      -0.362353153910789     
 -0.195227068823252      -0.213043406740484      -0.230859744657715     
 -0.248676082574946      -0.266492420492176      -0.284308758409410     
 -0.302125096326639      -0.319941434243872      -0.337757772161101     
 -0.355574110078333      -0.373390447995566      -0.203997535885085     
 -0.221813873802317      -0.239630211719547      -0.257446549636779     
 -0.275262887554010      -0.293079225471240      -0.310895563388471     
 -0.328711901305703      -0.346528239222934      -0.364344577140165     
 -0.382160915057397      -0.210362860419187      -0.228179198336420     
 -0.245995536253650      -0.263811874170882      -0.281628212088113     
 -0.299444550005346      -0.317260887922573      -0.335077225839805     
 -0.352893563757037      -0.370709901674267      -0.388526239591500     
 -0.214222657455197      -0.232038995372428      -0.249855333289660     
 -0.267671671206891      -0.285488009124122      -0.303304347041351     
 -0.321120684958583      -0.338937022875815      -0.356753360793045     
 -0.374569698710276      -0.392386036627507      -0.215516055688125     
 -0.233332393605355      -0.251148731522586      -0.268965069439817     
 -0.286781407357048      -0.304597745274279      -0.322414083191510     
 -0.340230421108743      -0.358046759025974      -0.375863096943203     
 -0.393679434860437     
  1.660316899342888E-002  1.494285209408599E-002  1.328253519474311E-002
  1.162221829540022E-002  9.961901396057328E-003  8.301584496714441E-003
  6.641267597371552E-003  4.980950698028665E-003  3.320633798685776E-003
  1.660316899342887E-003  0.000000000000000E+000  1.660316899342888E-002
  1.494285209408599E-002  1.328253519474311E-002  1.162221829540022E-002
  9.961901396057328E-003  8.301584496714441E-003  6.641267597371552E-003
  4.980950698028665E-003  3.320633798685776E-003  1.660316899342887E-003
  0.000000000000000E+000  1.660316899342888E-002  1.494285209408599E-002
  1.328253519474311E-002  1.162221829540022E-002  9.961901396057328E-003
  8.301584496714441E-003  6.641267597371552E-003  4.980950698028665E-003
  3.320633798685776E-003  1.660316899342887E-003  0.000000000000000E+000
  1.660316899342888E-002  1.494285209408599E-002  1.328253519474311E-002
  1.162221829540022E-002  9.961901396057328E-003  8.301584496714441E-003
  6.641267597371552E-003  4.980950698028665E-003  3.320633798685776E-003
  1.660316899342887E-003  0.000000000000000E+000  1.660316899342888E-002
  1.494285209408599E-002  1.328253519474311E-002  1.162221829540022E-002
  9.961901396057328E-003  8.301584496714441E-003  6.641267597371552E-003
  4.980950698028665E-003  3.320633798685776E-003  1.660316899342887E-003
  0.000000000000000E+000  1.660316899342888E-002  1.494285209408599E-002
  1.328253519474311E-002  1.162221829540022E-002  9.961901396057328E-003
  8.301584496714441E-003  6.641267597371552E-003  4.980950698028665E-003
  3.320633798685776E-003  1.660316899342887E-003  0.000000000000000E+000
  1.660316899342888E-002  1.494285209408599E-002  1.328253519474311E-002
  1.162221829540022E-002  9.961901396057328E-003  8.301584496714441E-003
  6.641267597371552E-003  4.980950698028665E-003  3.320633798685776E-003
  1.660316899342887E-003  0.000000000000000E+000  1.660316899342888E-002
  1.494285209408599E-002  1.328253519474311E-002  1.162221829540022E-002
  9.961901396057328E-003  8.301584496714441E-003  6.641267597371552E-003
  4.980950698028665E-003  3.320633798685776E-003  1.660316899342887E-003
  0.000000000000000E+000  1.660316899342888E-002  1.494285209408599E-002
  1.328253519474311E-002  1.162221829540022E-002  9.961901396057328E-003
  8.301584496714441E-003  6.641267597371552E-003  4.980950698028665E-003
  3.320633798685776E-003  1.660316899342887E-003  0.000000000000000E+000
  1.660316899342888E-002  1.494285209408599E-002  1.328253519474311E-002
  1.162221829540022E-002  9.961901396057328E-003  8.301584496714441E-003
  6.641267597371552E-003  4.980950698028665E-003  3.320633798685776E-003
  1.660316899342887E-003  0.000000000000000E+000  1.660316899342888E-002
  1.494285209408599E-002  1.328253519474311E-002  1.162221829540022E-002
  9.961901396057328E-003  8.301584496714441E-003  6.641267597371552E-003
  4.980950698028665E-003  3.320633798685776E-003  1.660316899342887E-003
  0.000000000000000E+000  1.660316899342888E-002  1.494285209408599E-002
  1.328253519474311E-002  1.162221829540022E-002  9.961901396057328E-003
  8.301584496714441E-003  6.641267597371552E-003  4.980950698028665E-003
  3.320633798685776E-003  1.660316899342887E-003  0.000000000000000E+000
  1.660316899342888E-002  1.494285209408599E-002  1.328253519474311E-002
  1.162221829540022E-002  9.961901396057328E-003  8.301584496714441E-003
  6.641267597371552E-003  4.980950698028665E-003  3.320633798685776E-003
  1.660316899342887E-003  0.000000000000000E+000  1.660316899342888E-002
  1.494285209408599E-002  1.328253519474311E-002  1.162221829540022E-002
  9.961901396057328E-003  8.301584496714441E-003  6.641267597371552E-003
  4.980950698028665E-003  3.320633798685776E-003  1.660316899342887E-003
  0.000000000000000E+000  1.660316899342888E-002  1.494285209408599E-002
  1.328253519474311E-002  1.162221829540022E-002  9.961901396057328E-003
  8.301584496714441E-003  6.641267597371552E-003  4.980950698028665E-003
  3.320633798685776E-003  1.660316899342887E-003  0.000000000000000E+000
  1.660316899342888E-002  1.494285209408599E-002  1.328253519474311E-002
  1.162221829540022E-002  9.961901396057328E-003  8.301584496714441E-003
  6.641267597371552E-003  4.980950698028665E-003  3.320633798685776E-003
  1.660316899342887E-003  0.000000000000000E+000  1.660316899342888E-002
  1.494285209408599E-002  1.328253519474311E-002  1.162221829540022E-002
  9.961901396057328E-003  8.301584496714441E-003  6.641267597371552E-003
  4.980950698028665E-003  3.320633798685776E-003  1.660316899342887E-003
  0.000000000000000E+000  1.660316899342888E-002  1.494285209408599E-002
  1.328253519474311E-002  1.162221829540022E-002  9.961901396057328E-003
  8.301584496714441E-003  6.641267597371552E-003  4.980950698028665E-003
  3.320633798685776E-003  1.660316899342887E-003  0.000000000000000E+000
  1.660316899342888E-002  1.494285209408599E-002  1.328253519474311E-002
  1.162221829540022E-002  9.961901396057328E-003  8.301584496714441E-003
  6.641267597371552E-003  4.980950698028665E-003  3.320633798685776E-003
  1.660316899342887E-003  0.000000000000000E+000  1.660316899342888E-002
  1.494285209408599E-002  1.328253519474311E-002  1.162221829540022E-002
  9.961901396057328E-003  8.301584496714441E-003  6.641267597371552E-003
  4.980950698028665E-003  3.320633798685776E-003  1.660316899342887E-003
  0.000000000000000E+000  1.660316899342888E-002  1.494285209408599E-002
  1.328253519474311E-002  1.162221829540022E-002  9.961901396057328E-003
  8.301584496714441E-003  6.641267597371552E-003  4.980950698028665E-003
  3.320633798685776E-003  1.660316899342887E-003  0.000000000000000E+000
  1.660316899342888E-002  1.494285209408599E-002  1.328253519474311E-002
  1.162221829540022E-002  9.961901396057328E-003  8.301584496714441E-003
  6.641267597371552E-003  4.980950698028665E-003  3.320633798685776E-003
  1.660316899342887E-003  0.000000000000000E+000  1.660316899342888E-002
  1.494285209408599E-002  1.328253519474311E-002  1.162221829540022E-002
  9.961901396057328E-003  8.301584496714441E-003  6.641267597371552E-003
  4.980950698028665E-003  3.320633798685776E-003  1.660316899342887E-003
  0.000000000000000E+000  1.660316899342888E-002  1.494285209408599E-002
  1.328253519474311E-002  1.162221829540022E-002  9.961901396057328E-003
  8.301584496714441E-003  6.641267597371552E-003  4.980950698028665E-003
  3.320633798685776E-003  1.660316899342887E-003  0.000000000000000E+000
  1.660316899342888E-002  1.494285209408599E-002  1.328253519474311E-002
  1.162221829540022E-002  9.961901396057328E-003  8.301584496714441E-003
  6.641267597371552E-003  4.980950698028665E-003  3.320633798685776E-003
  1.660316899342887E-003  0.000000000000000E+000  1.660316899342888E-002
  1.494285209408599E-002  1.328253519474311E-002  1.162221829540022E-002
  9.961901396057328E-003  8.301584496714441E-003  6.641267597371552E-003
  4.980950698028665E-003  3.320633798685776E-003  1.660316899342887E-003
  0.000000000000000E+000
  1.428437100135258E-003  8.424827208557523E-003  1.709795042334524E-002
  2.673116223691573E-002  3.667171961957600E-002  4.650083550667837E-002
  5.605788790280872E-002  6.545959371017963E-002  7.483020625401367E-002
  8.409415578791674E-002  2.867589508661886E-003  1.427347696343149E-002
  2.855569987617165E-002  4.443623133938751E-002  6.084052425398274E-002
  7.704450328111875E-002  9.280376699964564E-002  0.108307396820962     
  0.123764079934552       0.139294766183820       5.522912795811153E-003
  2.024622734937331E-002  3.869472634189422E-002  5.916503241826552E-002
  8.037157425843891E-002  0.101319694156887       0.121757535658001     
  0.141771396396420       0.161405542646759       0.180420695033034     
  1.010936956218352E-002  2.736523216015217E-002  4.810903089959594E-002
  7.074042324419338E-002  9.400469246015794E-002  0.117062336052829     
  0.139558390082599       0.161298736324397       0.182129991720916     
  0.201378795763768       1.827473355647991E-002  3.845753810684588E-002
  6.062917139499471E-002  8.383871416467309E-002  0.107228276331134     
  0.130201639598043       0.152330164489095       0.173247550012096     
  0.192671453086134       0.209954930300807       3.189027726379888E-002
  5.684875815608975E-002  8.116544572950764E-002  0.105060844568008     
  0.128220010654750       0.150301186341316       0.171021788136238     
  0.190143546891872       0.207466225811442       0.222329242564384     
  5.221599479854953E-002  8.496042476472034E-002  0.113450338965548     
  0.139563621470418       0.163700867020636       0.185907685000644     
  0.206138759774977       0.224330005751453       0.240348178943664     
  0.253484030197003       7.963319607353851E-002  0.123752574555140     
  0.159158192765821       0.189820627511988       0.217003055199278     
  0.241213683261727       0.262678769812908       0.281490886871969     
  0.297578062814299       0.310212758085600       0.113752246797768     
  0.172733283149244       0.217767176348823       0.255306209405449     
  0.287600323779264       0.315667173267908       0.340019222330228     
  0.360900979649721       0.378284092051712       0.391389200948199     
  0.153831968474382       0.230732704688835       0.287725730906035     
  0.334083462592658       0.373149080608144       0.406490668032124     
  0.434930222110651       0.458876448083065       0.478342690093259     
  0.492451073810533       0.199188621331995       0.296632773844081     
  0.367511314582050       0.424226078193883       0.471322540000825     
  0.510975342076015       0.544347748897393       0.572023124835972     
  0.594062466033985       0.609518758388384       0.249082398668018     
  0.369261175488311       0.455588812333388       0.523877987776243     
  0.579981620496088       0.626730478430061       0.665653834210795     
  0.697542009959617       0.722542025888011       0.739639908470990     
  0.302590832077486       0.447208399383746       0.550171192631814     
  0.630936697579258       0.696754203892801       0.751154778800140     
  0.796064891128572       0.832507939994978       0.860739475280825     
  0.879686919967423       0.358784111082845       0.529061064703288     
  0.649473585486247       0.743303254835422       0.819268626036782     
  0.881645516719438       0.932784937125064       0.973955432790424     
   1.00553495402655        1.02641494262369       0.417077473154999     
  0.613899204235676       0.752298038934401       0.859528890563142     
  0.945840604460177        1.01629277357787        1.07369091920315     
   1.11957468391266        1.15446267623343        1.17723481612701     
  0.477416309399481       0.701625656185310       0.858475808563291     
  0.979332318448495        1.07603243590884        1.15446255861701     
   1.21793265550674        1.26830326318286        1.30628131371988     
   1.33078523731597       0.541017003359373       0.794094650446283     
  0.970206847869532        1.10501554790572        1.21206356312595     
   1.29816595918965        1.36723172335149        1.42154601573864     
   1.46210890905253        1.48798661330155       0.617656482327215     
  0.904229477164293        1.10154335103933        1.25082744172488     
   1.36796457715546        1.46104943104283        1.53480146349250     
   1.59207983591314        1.63432474958580        1.66093214431119     
  0.749841109644199        1.08216191807485        1.30367250660339     
   1.46803461944152        1.59514862657618        1.69483370423330     
   1.77286950855059        1.83285747409711        1.87676143813517     
   1.90429343321111       0.942763846464928        1.33486739874536     
   1.58353712103880        1.76178338746845        1.89575313310148     
   1.99858824345923        2.07789324689341        2.13828196857773     
   2.18232841482999        2.21018962248767        1.03951702429057     
   1.45996977492955        1.71721067944254        1.89464690819334     
   2.02420352473232        2.12140639632732        2.19490488559282     
   2.24977214297107        2.28881833061773        2.31277041351970     
   1.00929385107419        1.40294049758077        1.63572396605249     
   1.79168773301185        1.90307975817474        1.98532761231265     
   2.04667670923403        2.09171023506285        2.12277092095762     
   2.14048735732273       0.885672787447970        1.20540239933982     
   1.38747806780708        1.50758860782496        1.59278117801165     
   1.65546560475662        1.70211347537396        1.73627781100397     
   1.75981951870336        1.77337048424255       0.681413523967941     
  0.898598367395347        1.02064507123218        1.10136912868223     
   1.15884318496039        1.20128981423340        1.23302713419902     
   1.25650547931489        1.27332854389649        1.28577160042813     
  0.415035685576530       0.536719164678480       0.605773315375698     
  0.651722392400048       0.684561327846212       0.708876991578236     
  0.727089648026943       0.740550308700194       0.750008882902478     
  0.755737394348071     
  0.000000000000000E+000  0.000000000000000E+000  0.000000000000000E+000
  0.000000000000000E+000  0.000000000000000E+000  0.000000000000000E+000
  0.000000000000000E+000  0.000000000000000E+000  0.000000000000000E+000
  0.000000000000000E+000  0.000000000000000E+000  0.000000000000000E+000
  0.000000000000000E+000  0.000000000000000E+000  0.000000000000000E+000
  0.000000000000000E+000  0.000000000000000E+000  0.000000000000000E+000
  0.000000000000000E+000  0.000000000000000E+000  0.000000000000000E+000
  0.000000000000000E+000  0.000000000000000E+000  0.000000000000000E+000
  0.000000000000000E+000  0.000000000000000E+000  0.000000000000000E+000
  0.000000000000000E+000  0.000000000000000E+000  0.000000000000000E+000
  0.000000000000000E+000  0.000000000000000E+000  0.000000000000000E+000
  0.000000000000000E+000  0.000000000000000E+000  0.000000000000000E+000
  0.000000000000000E+000  0.000000000000000E+000  0.000000000000000E+000
  0.000000000000000E+000  0.000000000000000E+000  0.000000000000000E+000
  0.000000000000000E+000  0.000000000000000E+000  0.000000000000000E+000
  0.000000000000000E+000  0.000000000000000E+000  0.000000000000000E+000
  0.000000000000000E+000  0.000000000000000E+000  0.000000000000000E+000
  0.000000000000000E+000  0.000000000000000E+000  0.000000000000000E+000
  0.000000000000000E+000  0.000000000000000E+000  0.000000000000000E+000
  0.000000000000000E+000  0.000000000000000E+000  0.000000000000000E+000
  0.000000000000000E+000  0.000000000000000E+000  0.000000000000000E+000
  0.000000000000000E+000  0.000000000000000E+000  0.000000000000000E+000
  0.000000000000000E+000  0.000000000000000E+000  0.000000000000000E+000
  0.000000000000000E+000  0.000000000000000E+000  0.000000000000000E+000
  0.000000000000000E+000  0.000000000000000E+000  0.000000000000000E+000
  0.000000000000000E+000  0.000000000000000E+000  0.000000000000000E+000
  0.000000000000000E+000  0.000000000000000E+000  0.000000000000000E+000
  0.000000000000000E+000  0.000000000000000E+000  0.000000000000000E+000
  0.000000000000000E+000  0.000000000000000E+000  0.000000000000000E+000
  0.000000000000000E+000  0.000000000000000E+000  0.000000000000000E+000
  0.000000000000000E+000  0.000000000000000E+000  0.000000000000000E+000
  0.000000000000000E+000  0.000000000000000E+000  0.000000000000000E+000
  0.000000000000000E+000  0.000000000000000E+000  0.000000000000000E+000
  0.000000000000000E+000  0.000000000000000E+000  0.000000000000000E+000
  0.000000000000000E+000  0.000000000000000E+000  0.000000000000000E+000
  0.000000000000000E+000  0.000000000000000E+000  0.000000000000000E+000
  0.000000000000000E+000  0.000000000000000E+000  0.000000000000000E+000
  0.000000000000000E+000  0.000000000000000E+000  0.000000000000000E+000
  0.000000000000000E+000  0.000000000000000E+000  0.000000000000000E+000