 Title = "Wing and Wake"
 VARIABLES = "X" "Y" "Z" "GAM" "skew"
 Zone I=   11 J=   26 K=1  T="Blade"
 DATAPACKING=BLOCK
 VARLOCATION=([4]=CELLCENTERED,[5]=CELLCENTERED)
 -0.237975510327597      -0.219862139803837      -0.201748769280076     
 -0.183635398756315      -0.165522028232554      -0.147408657708792     
 -0.129295287185032      -0.111181916661271      -9.306854613751019E-002
 -7.495517561374893E-002 -5.684180508998826E-002 -0.239095777980002     
 -0.220982407456242      -0.202869036932481      -0.184755666408721     
 -0.166642295884959      -0.148528925361198      -0.130415554837437     
 -0.112302184313676      -9.418881378991542E-002 -7.607544326615447E-002
 -5.796207274239364E-002 -0.242438913647126      -0.224325543123365     
 -0.206212172599604      -0.188098802075842      -0.169985431552081     
 -0.151872061028321      -0.133758690504559      -0.115645319980799     
 -9.753194945703762E-002 -7.941857893327699E-002 -6.130520840951593E-002
 -0.247952194082401      -0.229838823558641      -0.211725453034880     
 -0.193612082511119      -0.175498711987358      -0.157385341463597     
 -0.139271970939835      -0.121158600416075      -0.103045229892314     
 -8.493185936855323E-002 -6.681848884479241E-002 -0.255548671559894     
 -0.237435301036133      -0.219321930512371      -0.201208559988610     
 -0.183095189464850      -0.164981818941088      -0.146868448417328     
 -0.128755077893567      -0.110641707369806      -9.252833684604465E-002
 -7.441496632228409E-002 -0.265108545091865      -0.246995174568104     
 -0.228881804044343      -0.210768433520582      -0.192655062996821     
 -0.174541692473060      -0.156428321949299      -0.138314951425539     
 -0.120201580901778      -0.102088210378016      -8.397483985425534E-002
 -0.276481049761926      -0.258367679238164      -0.240254308714404     
 -0.222140938190643      -0.204027567666882      -0.185914197143121     
 -0.167800826619360      -0.149687456095599      -0.131574085571837     
 -0.113460715048077      -9.534734452431622E-002 -0.289486834377823     
 -0.271373463854063      -0.253260093330302      -0.235146722806541     
 -0.217033352282780      -0.198919981759019      -0.180806611235258     
 -0.162693240711497      -0.144579870187736      -0.126466499663975     
 -0.108353129140214      -0.303920789946886      -0.285807419423125     
 -0.267694048899364      -0.249580678375604      -0.231467307851843     
 -0.213353937328082      -0.195240566804321      -0.177127196280560     
 -0.159013825756799      -0.140900455233038      -0.122787084709277     
 -0.319555284367364      -0.301441913843602      -0.283328543319841     
 -0.265215172796081      -0.247101802272320      -0.228988431748559     
 -0.210875061224798      -0.192761690701037      -0.174648320177276     
 -0.156534949653515      -0.138421579129754      -0.336143752322650     
 -0.318030381798889      -0.299917011275128      -0.281803640751367     
 -0.263690270227606      -0.245576899703845      -0.227463529180085     
 -0.209350158656322      -0.191236788132563      -0.173123417608802     
 -0.155010047085040      -0.353424583763620      -0.335311213239859     
 -0.317197842716096      -0.299084472192336      -0.280971101668575     
 -0.262857731144814      -0.244744360621053      -0.226630990097293     
 -0.208517619573532      -0.190404249049771      -0.172290878526011     
 -0.371125249655379      -0.353011879131619      -0.334898508607858     
 -0.316785138084097      -0.298671767560335      -0.280558397036576     
 -0.262445026512815      -0.244331655989054      -0.226218285465292     
 -0.208104914941532      -0.189991544417771      -0.388966599922954     
 -0.370853229399193      -0.352739858875432      -0.334626488351671     
 -0.316513117827910      -0.298399747304148      -0.280286376780387     
 -0.262173006256627      -0.244059635732867      -0.225946265209105     
 -0.207832894685344      -0.406667265814715      -0.388553895290953     
 -0.370440524767192      -0.352327154243432      -0.334213783719671     
 -0.316100413195910      -0.297987042672149      -0.279873672148388     
 -0.261760301624627      -0.243646931100866      -0.225533560577105     
 -0.423948097255684      -0.405834726731922      -0.387721356208162     
 -0.369607985684401      -0.351494615160639      -0.333381244636879     
 -0.315267874113119      -0.297154503589358      -0.279041133065596     
 -0.260927762541834      -0.242814392018075      -0.440536565210970     
 -0.422423194687210      -0.404309824163448      -0.386196453639686     
 -0.368083083115926      -0.349969712592166      -0.331856342068403     
 -0.313742971544643      -0.295629601020884      -0.277516230497122     
 -0.259402859973362      -0.456171059631446      -0.438057689107687     
 -0.419944318583925      -0.401830948060164      -0.383717577536403     
 -0.365604207012643      -0.347490836488881      -0.329377465965120     
 -0.311264095441358      -0.293150724917600      -0.275037354393838     
 -0.470605015200510      -0.452491644676749      -0.434378274152988     
 -0.416264903629228      -0.398151533105467      -0.380038162581706     
 -0.361924792057944      -0.343811421534184      -0.325698051010422     
 -0.307584680486662      -0.289471309962901      -0.483610799816408     
 -0.465497429292648      -0.447384058768886      -0.429270688245126     
 -0.411157317721366      -0.393043947197604      -0.374930576673843     
 -0.356817206150081      -0.338703835626320      -0.320590465102560     
 -0.302477094578800      -0.494983304486468      -0.476869933962707     
 -0.458756563438948      -0.440643192915186      -0.422529822391424     
 -0.404416451867664      -0.386303081343904      -0.368189710820143     
 -0.350076340296381      -0.331962969772620      -0.313849599248859     
 -0.504543178018441      -0.486429807494679      -0.468316436970917     
 -0.450203066447158      -0.432089695923396      -0.413976325399636     
 -0.395862954875874      -0.377749584352112      -0.359636213828355     
 -0.341522843304592      -0.323409472780830      -0.512139655495933     
 -0.494026284972171      -0.475912914448410      -0.457799543924648     
 -0.439686173400888      -0.421572802877128      -0.403459432353368     
 -0.385346061829607      -0.367232691305845      -0.349119320782084     
 -0.331005950258322      -0.517652935931210      -0.499539565407447     
 -0.481426194883688      -0.463312824359925      -0.445199453836165     
 -0.427086083312402      -0.408972712788645      -0.390859342264882     
 -0.372745971741121      -0.354632601217360      -0.336519230693598     
 -0.520996071598330      -0.502882701074570      -0.484769330550808     
 -0.466655960027048      -0.448542589503286      -0.430429218979526     
 -0.412315848455765      -0.394202477932004      -0.376089107408242     
 -0.357975736884482      -0.339862366360721      -0.522116339250735     
 -0.504002968726974      -0.485889598203213      -0.467776227679453     
 -0.449662857155691      -0.431549486631932      -0.413436116108171     
 -0.395322745584408      -0.377209375060649      -0.359096004536887     
 -0.340982634013127     
  0.125247789662349       0.130909207864769       0.136570626067190     
  0.142232044269611       0.147893462472031       0.153554880674452     
  0.159216298876872       0.164877717079293       0.170539135281714     
  0.176200553484134       0.181861971686555       0.128832019328535     
  0.134493437530956       0.140154855733376       0.145816273935797     
  0.151477692138218       0.157139110340638       0.162800528543058     
  0.168461946745479       0.174123364947900       0.179784783150320     
  0.185446201352741       0.139528182884143       0.145189601086564     
  0.150851019288985       0.156512437491405       0.162173855693825     
  0.167835273896246       0.173496692098667       0.179158110301087     
  0.184819528503508       0.190480946705929       0.196142364908349     
  0.157167595440323       0.162829013642743       0.168490431845164     
  0.174151850047584       0.179813268250005       0.185474686452426     
  0.191136104654846       0.196797522857267       0.202458941059687     
  0.208120359262108       0.213781777464528       0.181472072923789     
  0.187133491126209       0.192794909328629       0.198456327531050     
  0.204117745733471       0.209779163935891       0.215440582138312     
  0.221102000340732       0.226763418543153       0.232424836745573     
  0.238086254947994       0.212058319205835       0.217719737408256     
  0.223381155610675       0.229042573813097       0.234703992015517     
  0.240365410217938       0.246026828420358       0.251688246622779     
  0.257349664825200       0.263011083027620       0.268672501230041     
  0.248443970911257       0.254105389113677       0.259766807316098     
  0.265428225518519       0.271089643720939       0.276751061923360     
  0.282412480125780       0.288073898328201       0.293735316530621     
  0.299396734733041       0.305058152935461       0.290055204576924     
  0.295716622779345       0.301378040981765       0.307039459184186     
  0.312700877386607       0.318362295589027       0.324023713791448     
  0.329685131993869       0.335346550196289       0.341007968398709     
  0.346669386601130       0.336235786190584       0.341897204393005     
  0.347558622595424       0.353220040797846       0.358881459000266     
  0.364542877202687       0.370204295405107       0.375865713607527     
  0.381527131809949       0.387188550012370       0.392849968214790     
  0.386257420393246       0.391918838595666       0.397580256798086     
  0.403241675000508       0.408903093202928       0.414564511405348     
  0.420225929607770       0.425887347810189       0.431548766012611     
  0.437210184215031       0.442871602417451       0.439331236132059     
  0.444992654334479       0.450654072536900       0.456315490739322     
  0.461976908941740       0.467638327144161       0.473299745346582     
  0.478961163549002       0.484622581751424       0.490283999953844     
  0.495945418156264       0.494620227628059       0.500281645830482     
  0.505943064032900       0.511604482235322       0.517265900437743     
  0.522927318640164       0.528588736842583       0.534250155045004     
  0.539911573247424       0.545572991449845       0.551234409652265     
  0.551252454457314       0.556913872659738       0.562575290862157     
  0.568236709064578       0.573898127266997       0.579559545469419     
  0.585220963671841       0.590882381874261       0.596543800076681     
  0.602205218279100       0.607866636481521       0.608334792572276     
  0.613996210774697       0.619657628977119       0.625319047179538     
  0.630980465381958       0.636641883584379       0.642303301786799     
  0.647964719989222       0.653626138191642       0.659287556394062     
  0.664948974596482       0.664967019401532       0.670628437603953     
  0.676289855806373       0.681951274008795       0.687612692211214     
  0.693274110413635       0.698935528616055       0.704596946818477     
  0.710258365020897       0.715919783223317       0.721581201425739     
  0.720256010897535       0.725917429099954       0.731578847302376     
  0.737240265504797       0.742901683707215       0.748563101909636     
  0.754224520112056       0.759885938314480       0.765547356516899     
  0.771208774719318       0.776870192921741       0.773329826636346     
  0.778991244838767       0.784652663041187       0.790314081243608     
  0.795975499446029       0.801636917648449       0.807298335850871     
  0.812959754053290       0.818621172255711       0.824282590458131     
  0.829944008660553       0.823351460839008       0.829012879041429     
  0.834674297243850       0.840335715446271       0.845997133648691     
  0.851658551851112       0.857319970053532       0.862981388255953     
  0.868642806458373       0.874304224660795       0.879965642863213     
  0.869532042452667       0.875193460655088       0.880854878857510     
  0.886516297059932       0.892177715262349       0.897839133464770     
  0.903500551667191       0.909161969869613       0.914823388072033     
  0.920484806274453       0.926146224476873       0.911143276118335     
  0.916804694320758       0.922466112523175       0.928127530725598     
  0.933788948928019       0.939450367130440       0.945111785332859     
  0.950773203535280       0.956434621737699       0.962096039940122     
  0.967757458142540       0.947528927823754       0.953190346026178     
  0.958851764228601       0.964513182431017       0.970174600633438     
  0.975836018835859       0.981497437038282       0.987158855240703     
  0.992820273443122       0.998481691645541        1.00414310984796     
  0.978115174105803       0.983776592308224       0.989438010510644     
  0.995099428713066        1.00076084691548        1.00642226511791     
   1.01208368332033        1.01774510152275        1.02340651972517     
   1.02906793792759        1.03472935613001        1.00241965158927     
   1.00808106979169        1.01374248799411        1.01940390619653     
   1.02506532439895        1.03072674260137        1.03638816080379     
   1.04204957900621        1.04771099720863        1.05337241541106     
   1.05903383361347        1.02005906414545        1.02572048234787     
   1.03138190055029        1.03704331875271        1.04270473695513     
   1.04836615515756        1.05402757335997        1.05968899156239     
   1.06535040976481        1.07101182796723        1.07667324616966     
   1.03075522770106        1.03641664590348        1.04207806410590     
   1.04773948230832        1.05340090051074        1.05906231871316     
   1.06472373691558        1.07038515511800        1.07604657332042     
   1.08170799152284        1.08736940972526        1.03433945736724     
   1.04000087556966        1.04566229377208        1.05132371197450     
   1.05698513017692        1.06264654837935        1.06830796658177     
   1.07396938478419        1.07963080298661        1.08529222118903     
   1.09095363939145     
  1.660316899342888E-002  1.494285209408599E-002  1.328253519474311E-002
  1.162221829540022E-002  9.961901396057328E-003  8.301584496714441E-003
  6.641267597371552E-003  4.980950698028665E-003  3.320633798685776E-003
  1.660316899342887E-003  0.000000000000000E+000  1.660316899342888E-002
  1.494285209408599E-002  1.328253519474311E-002  1.162221829540022E-002
  9.961901396057328E-003  8.301584496714441E-003  6.641267597371552E-003
  4.980950698028665E-003  3.320633798685776E-003  1.660316899342887E-003
  0.000000000000000E+000  1.660316899342888E-002  1.494285209408599E-002
  1.328253519474311E-002  1.162221829540022E-002  9.961901396057328E-003
  8.301584496714441E-003  6.641267597371552E-003  4.980950698028665E-003
  3.320633798685776E-003  1.660316899342887E-003  0.000000000000000E+000
  1.660316899342888E-002  1.494285209408599E-002  1.328253519474311E-002
  1.162221829540022E-002  9.961901396057328E-003  8.301584496714441E-003
  6.641267597371552E-003  4.980950698028665E-003  3.320633798685776E-003
  1.660316899342887E-003  0.000000000000000E+000  1.660316899342888E-002
  1.494285209408599E-002  1.328253519474311E-002  1.162221829540022E-002
  9.961901396057328E-003  8.301584496714441E-003  6.641267597371552E-003
  4.980950698028665E-003  3.320633798685776E-003  1.660316899342887E-003
  0.000000000000000E+000  1.660316899342888E-002  1.494285209408599E-002
  1.328253519474311E-002  1.162221829540022E-002  9.961901396057328E-003
  8.301584496714441E-003  6.641267597371552E-003  4.980950698028665E-003
  3.320633798685776E-003  1.660316899342887E-003  0.000000000000000E+000
  1.660316899342888E-002  1.494285209408599E-002  1.328253519474311E-002
  1.162221829540022E-002  9.961901396057328E-003  8.301584496714441E-003
  6.641267597371552E-003  4.980950698028665E-003  3.320633798685776E-003
  1.660316899342887E-003  0.000000000000000E+000  1.660316899342888E-002
  1.494285209408599E-002  1.328253519474311E-002  1.162221829540022E-002
  9.961901396057328E-003  8.301584496714441E-003  6.641267597371552E-003
  4.980950698028665E-003  3.320633798685776E-003  1.660316899342887E-003
  0.000000000000000E+000  1.660316899342888E-002  1.494285209408599E-002
  1.328253519474311E-002  1.162221829540022E-002  9.961901396057328E-003
  8.301584496714441E-003  6.641267597371552E-003  4.980950698028665E-003
  3.320633798685776E-003  1.660316899342887E-003  0.000000000000000E+000
  1.660316899342888E-002  1.494285209408599E-002  1.328253519474311E-002
  1.162221829540022E-002  9.961901396057328E-003  8.301584496714441E-003
  6.641267597371552E-003  4.980950698028665E-003  3.320633798685776E-003
  1.660316899342887E-003  0.000000000000000E+000  1.660316899342888E-002
  1.494285209408599E-002  1.328253519474311E-002  1.162221829540022E-002
  9.961901396057328E-003  8.301584496714441E-003  6.641267597371552E-003
  4.980950698028665E-003  3.320633798685776E-003  1.660316899342887E-003
  0.000000000000000E+000  1.660316899342888E-002  1.494285209408599E-002
  1.328253519474311E-002  1.162221829540022E-002  9.961901396057328E-003
  8.301584496714441E-003  6.641267597371552E-003  4.980950698028665E-003
  3.320633798685776E-003  1.660316899342887E-003  0.000000000000000E+000
  1.660316899342888E-002  1.494285209408599E-002  1.328253519474311E-002
  1.162221829540022E-002  9.961901396057328E-003  8.301584496714441E-003
  6.641267597371552E-003  4.980950698028665E-003  3.320633798685776E-003
  1.660316899342887E-003  0.000000000000000E+000  1.660316899342888E-002
  1.494285209408599E-002  1.328253519474311E-002  1.162221829540022E-002
  9.961901396057328E-003  8.301584496714441E-003  6.641267597371552E-003
  4.980950698028665E-003  3.320633798685776E-003  1.660316899342887E-003
  0.000000000000000E+000  1.660316899342888E-002  1.494285209408599E-002
  1.328253519474311E-002  1.162221829540022E-002  9.961901396057328E-003
  8.301584496714441E-003  6.641267597371552E-003  4.980950698028665E-003
  3.320633798685776E-003  1.660316899342887E-003  0.000000000000000E+000
  1.660316899342888E-002  1.494285209408599E-002  1.328253519474311E-002
  1.162221829540022E-002  9.961901396057328E-003  8.301584496714441E-003
  6.641267597371552E-003  4.980950698028665E-003  3.320633798685776E-003
  1.660316899342887E-003  0.000000000000000E+000  1.660316899342888E-002
  1.494285209408599E-002  1.328253519474311E-002  1.162221829540022E-002
  9.961901396057328E-003  8.301584496714441E-003  6.641267597371552E-003
  4.980950698028665E-003  3.320633798685776E-003  1.660316899342887E-003
  0.000000000000000E+000  1.660316899342888E-002  1.494285209408599E-002
  1.328253519474311E-002  1.162221829540022E-002  9.961901396057328E-003
  8.301584496714441E-003  6.641267597371552E-003  4.980950698028665E-003
  3.320633798685776E-003  1.660316899342887E-003  0.000000000000000E+000
  1.660316899342888E-002  1.494285209408599E-002  1.328253519474311E-002
  1.162221829540022E-002  9.961901396057328E-003  8.301584496714441E-003
  6.641267597371552E-003  4.980950698028665E-003  3.320633798685776E-003
  1.660316899342887E-003  0.000000000000000E+000  1.660316899342888E-002
  1.494285209408599E-002  1.328253519474311E-002  1.162221829540022E-002
  9.961901396057328E-003  8.301584496714441E-003  6.641267597371552E-003
  4.980950698028665E-003  3.320633798685776E-003  1.660316899342887E-003
  0.000000000000000E+000  1.660316899342888E-002  1.494285209408599E-002
  1.328253519474311E-002  1.162221829540022E-002  9.961901396057328E-003
  8.301584496714441E-003  6.641267597371552E-003  4.980950698028665E-003
  3.320633798685776E-003  1.660316899342887E-003  0.000000000000000E+000
  1.660316899342888E-002  1.494285209408599E-002  1.328253519474311E-002
  1.162221829540022E-002  9.961901396057328E-003  8.301584496714441E-003
  6.641267597371552E-003  4.980950698028665E-003  3.320633798685776E-003
  1.660316899342887E-003  0.000000000000000E+000  1.660316899342888E-002
  1.494285209408599E-002  1.328253519474311E-002  1.162221829540022E-002
  9.961901396057328E-003  8.301584496714441E-003  6.641267597371552E-003
  4.980950698028665E-003  3.320633798685776E-003  1.660316899342887E-003
  0.000000000000000E+000  1.660316899342888E-002  1.494285209408599E-002
  1.328253519474311E-002  1.162221829540022E-002  9.961901396057328E-003
  8.301584496714441E-003  6.641267597371552E-003  4.980950698028665E-003
  3.320633798685776E-003  1.660316899342887E-003  0.000000000000000E+000
  1.660316899342888E-002  1.494285209408599E-002  1.328253519474311E-002
  1.162221829540022E-002  9.961901396057328E-003  8.301584496714441E-003
  6.641267597371552E-003  4.980950698028665E-003  3.320633798685776E-003
  1.660316899342887E-003  0.000000000000000E+000  1.660316899342888E-002
  1.494285209408599E-002  1.328253519474311E-002  1.162221829540022E-002
  9.961901396057328E-003  8.301584496714441E-003  6.641267597371552E-003
  4.980950698028665E-003  3.320633798685776E-003  1.660316899342887E-003
  0.000000000000000E+000
  7.130126554965817E-002  0.118505437721941       0.158430776174026     
  0.188817177316316       0.208841119014631       0.222321359105794     
  0.233521164534567       0.242106916622880       0.246311361013351     
  0.244679898107037       0.118584212506840       0.198090089707835     
  0.264691949994169       0.315526577407119       0.349635772998175     
  0.372840750989251       0.391777263728882       0.406110951093905     
  0.412904611514008       0.410552542085100       0.157780573341792     
  0.265173208861340       0.353733101241848       0.421679484357648     
  0.468940769434318       0.502189794559014       0.527762543830149     
  0.545781322818442       0.552780435200538       0.546203451263317     
  0.184763784498362       0.308430021514342       0.409219060244236     
  0.487605493298261       0.545288574110363       0.586827977484156     
  0.615048333816509       0.631043601899528       0.633282864879978     
  0.619431491702126       0.199150044650809       0.325232227180825     
  0.428606755210883       0.512754954529696       0.575786618863145     
  0.618332109907753       0.643167205860233       0.651994994540119     
  0.643979312627569       0.619377028290753       0.199364622598563     
  0.321202213575463       0.419566881108058       0.498100626611650     
  0.556495568800805       0.592937994742809       0.608499875001491     
  0.606377884198641       0.588964969961840       0.558802694176639     
  0.183566711655463       0.291083073299517       0.374880117628091     
  0.440250776764263       0.487542809037703       0.516806290645152     
  0.529534015904154       0.527743935235651       0.513269961088499     
  0.488689796674972       0.162615916098534       0.251895609760983     
  0.319575863567770       0.371781172078587       0.410200054918496     
  0.436728540901999       0.453014422305077       0.460118335848741     
  0.458228115173102       0.447744526747587       0.158850919672719     
  0.241454920824064       0.302740067063517       0.350780457778245     
  0.388521465665336       0.417736868502479       0.439571126404864     
  0.454507318663217       0.462432002820474       0.462847913438190     
  0.179758817926942       0.269876681553643       0.335971854504048     
  0.388488888691818       0.431197301643210       0.465895727847666     
  0.493491163968739       0.514337035808726       0.528289963819926     
  0.534535061545863       0.216954384605720       0.323198414970777     
  0.400178308553786       0.461183213656474       0.511004274366749     
  0.551866124231357       0.584889300885228       0.610562632895677     
  0.628810573496914       0.638675482849203       0.262830499236028     
  0.389590406728496       0.480399678227887       0.551812533861183     
  0.609880194688948       0.657460708386609       0.696039707161076     
  0.726327814081376       0.748361573774627       0.761104796376385     
  0.313515684398535       0.463190862401186       0.569488944683033     
  0.652492372123221       0.719628069514037       0.774464788717512     
  0.818904570084274       0.853909764601338       0.879646063973802     
  0.895020839931289       0.367069157420795       0.541065871696628     
  0.663838705755681       0.759162414290005       0.835903475608863     
  0.898376285380435       0.948917558420678       0.988750352181544     
   1.01817687433274        1.03607129236182       0.422517409632910     
  0.621719682042595       0.761563109395771       0.869627871742203     
  0.956257436247676        1.02653527660407        1.08325373347742     
   1.12791026251666        1.16096107394833        1.18127296341364     
  0.479688569384847       0.704883240787933       0.862288337728808     
  0.983382895910157        1.08002345862660        1.15808659177340     
   1.22085746032430        1.27015612886360        1.30663289708021     
   1.32919526262300       0.539860651946713       0.792531312395626     
  0.968385350752055        1.10294254943263        1.20966731205781     
   1.29531723488568        1.36375374501199        1.41721749867006     
   1.45666135011066        1.48113865898605       0.612882998599513     
  0.897850091192819        1.09434522618285        1.24312746126700     
   1.35988231691821        1.45259771808082        1.52592679162520     
   1.58268281000119        1.62427028908457        1.65007527157242     
  0.743962290386945        1.07422064176505        1.29475904307094     
   1.45874766630733        1.58577446142809        1.68547118787497     
   1.76353499960003        1.82353687626015        1.86743205879605     
   1.89493514454119       0.945475281785390        1.33784650378353     
   1.58652692819063        1.76505728577598        1.89935291717775     
   2.00254999330975        2.08224638696454        2.14306142514491     
   2.18758838861768        2.21599380436198        1.05101921798772     
   1.47475020386165        1.73353473146790        1.91205585248283     
   2.04246786770678        2.14035217026888        2.21442103043320     
   2.26980728268520        2.30937176100217        2.33386718539208     
   1.02374739780232        1.42209378736334        1.65721197562880     
   1.81457353323720        1.92690364802073        2.00982398601028     
   2.07168504998439        2.11713814533753        2.14857108289190     
   2.16663309254323       0.899208751030958        1.22326642125186     
   1.40749195516371        1.52886418651191        1.61488101745739     
   1.67814535018109        1.72522616415627        1.75973243329535     
   1.78355755236983        1.79734179138309       0.692000423569387     
  0.912227943952538        1.03578839550208        1.11740917508492     
   1.17547050544435        1.21832998115338        1.25037483184644     
   1.27409511602039        1.29111996460781        1.30375298919052     
  0.421506133484481       0.544903160078488       0.614822413360472     
  0.661288771488963       0.694468264794389       0.719023997277935     
  0.737415504176581       0.751015882905199       0.760587209276157     
  0.766403440876241     
  0.000000000000000E+000  0.000000000000000E+000  0.000000000000000E+000
  0.000000000000000E+000  0.000000000000000E+000  0.000000000000000E+000
  0.000000000000000E+000  0.000000000000000E+000  0.000000000000000E+000
  0.000000000000000E+000  0.000000000000000E+000  0.000000000000000E+000
  0.000000000000000E+000  0.000000000000000E+000  0.000000000000000E+000
  0.000000000000000E+000  0.000000000000000E+000  0.000000000000000E+000
  0.000000000000000E+000  0.000000000000000E+000  0.000000000000000E+000
  0.000000000000000E+000  0.000000000000000E+000  0.000000000000000E+000
  0.000000000000000E+000  0.000000000000000E+000  0.000000000000000E+000
  0.000000000000000E+000  0.000000000000000E+000  0.000000000000000E+000
  0.000000000000000E+000  0.000000000000000E+000  0.000000000000000E+000
  0.000000000000000E+000  0.000000000000000E+000  0.000000000000000E+000
  0.000000000000000E+000  0.000000000000000E+000  0.000000000000000E+000
  0.000000000000000E+000  0.000000000000000E+000  0.000000000000000E+000
  0.000000000000000E+000  0.000000000000000E+000  0.000000000000000E+000
  0.000000000000000E+000  0.000000000000000E+000  0.000000000000000E+000
  0.000000000000000E+000  0.000000000000000E+000  0.000000000000000E+000
  0.000000000000000E+000  0.000000000000000E+000  0.000000000000000E+000
  0.000000000000000E+000  0.000000000000000E+000  0.000000000000000E+000
  0.000000000000000E+000  0.000000000000000E+000  0.000000000000000E+000
  0.000000000000000E+000  0.000000000000000E+000  0.000000000000000E+000
  0.000000000000000E+000  0.000000000000000E+000  0.000000000000000E+000
  0.000000000000000E+000  0.000000000000000E+000  0.000000000000000E+000
  0.000000000000000E+000  0.000000000000000E+000  0.000000000000000E+000
  0.000000000000000E+000  0.000000000000000E+000  0.000000000000000E+000
  0.000000000000000E+000  0.000000000000000E+000  0.000000000000000E+000
  0.000000000000000E+000  0.000000000000000E+000  0.000000000000000E+000
  0.000000000000000E+000  0.000000000000000E+000  0.000000000000000E+000
  0.000000000000000E+000  0.000000000000000E+000  0.000000000000000E+000
  0.000000000000000E+000  0.000000000000000E+000  0.000000000000000E+000
  0.000000000000000E+000  0.000000000000000E+000  0.000000000000000E+000
  0.000000000000000E+000  0.000000000000000E+000  0.000000000000000E+000
  0.000000000000000E+000  0.000000000000000E+000  0.000000000000000E+000
  0.000000000000000E+000  0.000000000000000E+000  0.000000000000000E+000
  0.000000000000000E+000  0.000000000000000E+000  0.000000000000000E+000
  0.000000000000000E+000  0.000000000000000E+000  0.000000000000000E+000
  0.000000000000000E+000  0.000000000000000E+000  0.000000000000000E+000
  0.000000000000000E+000  0.000000000000000E+000  0.000000000000000E+000
  0.000000000000000E+000  0.000000000000000E+000  0.000000000000000E+000