 Title = "Wing and Wake"
 VARIABLES = "X" "Y" "Z" "GAM" "skew"
 Zone I=   11 J=   26 K=1  T="Blade"
 DATAPACKING=BLOCK
 VARLOCATION=([4]=CELLCENTERED,[5]=CELLCENTERED)
  2.464925658934969E-002  3.681115761426668E-002  4.897305863918403E-002
  6.113495966410178E-002  7.329686068901908E-002  8.545876171393656E-002
  9.762066273885389E-002  0.109782563763771       0.121944464788689     
  0.134106365813606       0.146268266838524       2.753198713693165E-002
  3.969388816184895E-002  5.185578918676597E-002  6.401769021168352E-002
  7.617959123660109E-002  8.834149226151827E-002  0.100503393286436     
  0.112665294311353       0.124827195336271       0.136989096361188     
  0.149150997386106       3.613471639688143E-002  4.829661742179888E-002
  6.045851844671631E-002  7.262041947163367E-002  8.478232049655102E-002
  9.694422152146857E-002  0.109106122546386       0.121268023571303     
  0.133429924596221       0.145591825621138       0.157753726646056     
  5.032177418974975E-002  6.248367521466664E-002  7.464557623958468E-002
  8.680747726450183E-002  9.896937828941914E-002  0.111131279314337     
  0.123293180339254       0.135455081364171       0.147616982389089     
  0.159778883414006       0.171940784438923       6.986942213920461E-002
  8.203132316412126E-002  9.419322418903883E-002  0.106355125213957     
  0.118517026238874       0.130678927263791       0.142840828288709     
  0.155002729313626       0.167164630338543       0.179326531363461     
  0.191488432388378       9.446938215988374E-002  0.106631283184801     
  0.118793184209718       0.130955085234636       0.143116986259553     
  0.155278887284471       0.167440788309388       0.179602689334305     
  0.191764590359223       0.203926491384140       0.216088392409058     
  0.123733698186958       0.135895599211875       0.148057500236793     
  0.160219401261710       0.172381302286628       0.184543203311545     
  0.196705104336462       0.208867005361380       0.221028906386297     
  0.233190807411214       0.245352708436131       0.157200854475025     
  0.169362755499943       0.181524656524860       0.193686557549778     
  0.205848458574695       0.218010359599613       0.230172260624530     
  0.242334161649448       0.254496062674365       0.266657963699282     
  0.278819864724200       0.194343053977113       0.206504955002031     
  0.218666856026947       0.230828757051865       0.242990658076783     
  0.255152559101700       0.267314460126618       0.279476361151534     
  0.291638262176452       0.303800163201370       0.315962064226287     
  0.234574542019398       0.246736443044315       0.258898344069232     
  0.271060245094150       0.283222146119068       0.295384047143984     
  0.307545948168903       0.319707849193819       0.331869750218738     
  0.344031651243655       0.356193552268572       0.277260844002328     
  0.289422745027245       0.301584646052163       0.313746547077081     
  0.325908448101997       0.338070349126915       0.350232250151832     
  0.362394151176749       0.374556052201667       0.386717953226585     
  0.398879854251502       0.321728771444069       0.333890672468989     
  0.346052573493905       0.358214474518823       0.370376375543740     
  0.382538276568658       0.394700177593575       0.406862078618493     
  0.419023979643409       0.431185880668327       0.443347781693244     
  0.367277038565017       0.379438939589937       0.391600840614852     
  0.403762741639771       0.415924642664687       0.428086543689606     
  0.440248444714524       0.452410345739441       0.464572246764358     
  0.476734147789274       0.488896048814192       0.413187321983457     
  0.425349223008375       0.437511124033293       0.449673025058209     
  0.461834926083126       0.473996827108044       0.486158728132961     
  0.498320629157880       0.510482530182797       0.522644431207715     
  0.534806332232631       0.458735589104405       0.470897490129323     
  0.483059391154239       0.495221292179157       0.507383193204073     
  0.519545094228992       0.531706995253909       0.543868896278827     
  0.556030797303745       0.568192698328661       0.580354599353580     
  0.503203516546149       0.515365417571065       0.527527318595984     
  0.539689219620902       0.551851120645817       0.564013021670735     
  0.576174922695651       0.588336823720571       0.600498724745488     
  0.612660625770405       0.624822526795322       0.545889818529077     
  0.558051719553995       0.570213620578912       0.582375521603830     
  0.594537422628747       0.606699323653664       0.618861224678583     
  0.631023125703499       0.643185026728416       0.655346927753334     
  0.667508828778252       0.586121306571362       0.598283207596280     
  0.610445108621198       0.622607009646115       0.634768910671032     
  0.646930811695950       0.659092712720867       0.671254613745785     
  0.683416514770702       0.695578415795620       0.707740316820535     
  0.623263506073449       0.635425407098367       0.647587308123285     
  0.659749209148204       0.671911110173118       0.684073011198036     
  0.696234912222954       0.708396813247872       0.720558714272790     
  0.732720615297706       0.744882516322623       0.656730662361516     
  0.668892563386436       0.681054464411351       0.693216365436270     
  0.705378266461187       0.717540167486105       0.729702068511022     
  0.741863969535939       0.754025870560855       0.766187771585775     
  0.778349672610690       0.685994978388589       0.698156879413509     
  0.710318780438428       0.722480681463342       0.734642582488260     
  0.746804483513177       0.758966384538097       0.771128285563014     
  0.783290186587931       0.795452087612847       0.807613988637765     
  0.710594938409270       0.722756839434189       0.734918740459106     
  0.747080641484023       0.759242542508939       0.771404443533860     
  0.783566344558774       0.795728245583693       0.807890146608611     
  0.820052047633529       0.832213948658447       0.730142586358725     
  0.742304487383643       0.754466388408561       0.766628289433477     
  0.778790190458395       0.790952091483312       0.803113992508229     
  0.815275893533148       0.827437794558064       0.839599695582983     
  0.851761596607899       0.744329644151594       0.756491545176511     
  0.768653446201429       0.780815347226346       0.792977248251264     
  0.805139149276185       0.817301050301097       0.829462951326014     
  0.841624852350934       0.853786753375849       0.865948654400768     
  0.752932373411544       0.765094274436461       0.777256175461381     
  0.789418076486297       0.801579977511214       0.813741878536128     
  0.825903779561049       0.838065680585966       0.850227581610881     
  0.862389482635799       0.874551383660716       0.755815103959126     
  0.767977004984042       0.780138906008960       0.792300807033877     
  0.804462708058794       0.816624609083712       0.828786510108629     
  0.840948411133549       0.853110312158465       0.865272213183379     
  0.877434114208302     
  0.267790527242053       0.253222273700401       0.238654020158749     
  0.224085766617097       0.209517513075445       0.194949259533792     
  0.180381005992140       0.165812752450488       0.151244498908835     
  0.136676245367183       0.122107991825531       0.270197094611364     
  0.255628841069712       0.241060587528060       0.226492333986408     
  0.211924080444756       0.197355826903104       0.182787573361451     
  0.168219319819799       0.153651066278147       0.139082812736494     
  0.124514559194842       0.277378843714271       0.262810590172619     
  0.248242336630968       0.233674083089314       0.219105829547662     
  0.204537576006010       0.189969322464357       0.175401068922705     
  0.160832815381053       0.146264561839401       0.131696308297749     
  0.289222514077251       0.274654260535599       0.260086006993947     
  0.245517753452295       0.230949499910642       0.216381246368990     
  0.201812992827337       0.187244739285685       0.172676485744034     
  0.158108232202381       0.143539978660729       0.305541323943615     
  0.290973070401962       0.276404816860310       0.261836563318658     
  0.247268309777006       0.232700056235353       0.218131802693701     
  0.203563549152049       0.188995295610396       0.174427042068744     
  0.159858788527092       0.326077915933384       0.311509662391732     
  0.296941408850079       0.282373155308427       0.267804901766775     
  0.253236648225123       0.238668394683470       0.224100141141819     
  0.209531887600166       0.194963634058514       0.180395380516861     
  0.350508415722916       0.335940162181263       0.321371908639612     
  0.306803655097960       0.292235401556307       0.277667148014655     
  0.263098894473003       0.248530640931350       0.233962387389697     
  0.219394133848046       0.204825880306393       0.378447539736456     
  0.363879286194805       0.349311032653152       0.334742779111500     
  0.320174525569848       0.305606272028195       0.291038018486543     
  0.276469764944891       0.261901511403238       0.247333257861586     
  0.232765004319934       0.409454671298287       0.394886417756635     
  0.380318164214982       0.365749910673331       0.351181657131679     
  0.336613403590026       0.322045150048374       0.307476896506721     
  0.292908642965069       0.278340389423417       0.263772135881765     
  0.443040809420917       0.428472555879264       0.413904302337612     
  0.399336048795960       0.384767795254308       0.370199541712656     
  0.355631288171003       0.341063034629351       0.326494781087699     
  0.311926527546047       0.297358274004394       0.478676280642765     
  0.464108027101112       0.449539773559460       0.434971520017808     
  0.420403266476155       0.405835012934503       0.391266759392852     
  0.376698505851197       0.362130252309547       0.347561998767895     
  0.332993745226242       0.515799092295063       0.501230838753411     
  0.486662585211756       0.472094331670106       0.457526078128454     
  0.442957824586802       0.428389571045149       0.413821317503497     
  0.399253063961844       0.384684810420193       0.370116556878541     
  0.553823795461961       0.539255541920311       0.524687288378658     
  0.510119034837006       0.495550781295352       0.480982527753702     
  0.466414274212051       0.451846020670397       0.437277767128744     
  0.422709513587092       0.408141260045440       0.592150717859665     
  0.577582464318013       0.563014210776361       0.548445957234708     
  0.533877703693056       0.519309450151403       0.504741196609751     
  0.490172943068100       0.475604689526448       0.461036435984795     
  0.446468182443143       0.630175421026565       0.615607167484913     
  0.601038913943260       0.586470660401609       0.571902406859956     
  0.557334153318304       0.542765899776651       0.528197646235000     
  0.513629392693347       0.499061139151695       0.484492885610043     
  0.667298232678863       0.652729979137211       0.638161725595559     
  0.623593472053907       0.609025218512253       0.594456964970602     
  0.579888711428950       0.565320457887299       0.550752204345645     
  0.536183950803992       0.521615697262342       0.702933703900711     
  0.688365450359060       0.673797196817406       0.659228943275753     
  0.644660689734101       0.630092436192451       0.615524182650797     
  0.600955929109145       0.586387675567494       0.571819422025841     
  0.557251168484190       0.736519842023339       0.721951588481689     
  0.707383334940036       0.692815081398383       0.678246827856731     
  0.663678574315080       0.649110320773427       0.634542067231774     
  0.619973813690121       0.605405560148471       0.590837306606818     
  0.767526973585171       0.752958720043519       0.738390466501867     
  0.723822212960216       0.709253959418563       0.694685705876911     
  0.680117452335257       0.665549198793606       0.650980945251953     
  0.636412691710301       0.621844438168649       0.795466097598711     
  0.780897844057062       0.766329590515406       0.751761336973756     
  0.737193083432104       0.722624829890451       0.708056576348799     
  0.693488322807146       0.678920069265493       0.664351815723842     
  0.649783562182190       0.819896597388242       0.805328343846591     
  0.790760090304941       0.776191836763287       0.761623583221634     
  0.747055329679982       0.732487076138331       0.717918822596679     
  0.703350569055026       0.688782315513373       0.674214061971721     
  0.840433189378014       0.825864935836361       0.811296682294707     
  0.796728428753057       0.782160175211403       0.767591921669753     
  0.753023668128099       0.738455414586446       0.723887161044798     
  0.709318907503144       0.694750653961491       0.856751999244378     
  0.842183745702724       0.827615492161073       0.813047238619418     
  0.798478985077767       0.783910731536116       0.769342477994464     
  0.754774224452812       0.740205970911159       0.725637717369507     
  0.711069463827853       0.868595669607358       0.854027416065704     
  0.839459162524054       0.824890908982400       0.810322655440749     
  0.795754401899096       0.781186148357445       0.766617894815791     
  0.752049641274140       0.737481387732486       0.722913134190833     
  0.875777418710263       0.861209165168611       0.846640911626959     
  0.832072658085307       0.817504404543654       0.802936151002000     
  0.788367897460350       0.773799643918697       0.759231390377043     
  0.744663136835392       0.730094883293740       0.878183986079574     
  0.863615732537920       0.849047478996269       0.834479225454617     
  0.819910971912964       0.805342718371314       0.790774464829661     
  0.776206211288008       0.761637957746357       0.747069704204702     
  0.732501450663053     
  1.660316899342888E-002  1.494285209408599E-002  1.328253519474311E-002
  1.162221829540022E-002  9.961901396057328E-003  8.301584496714441E-003
  6.641267597371552E-003  4.980950698028665E-003  3.320633798685776E-003
  1.660316899342887E-003  0.000000000000000E+000  1.660316899342888E-002
  1.494285209408599E-002  1.328253519474311E-002  1.162221829540022E-002
  9.961901396057328E-003  8.301584496714441E-003  6.641267597371552E-003
  4.980950698028665E-003  3.320633798685776E-003  1.660316899342887E-003
  0.000000000000000E+000  1.660316899342888E-002  1.494285209408599E-002
  1.328253519474311E-002  1.162221829540022E-002  9.961901396057328E-003
  8.301584496714441E-003  6.641267597371552E-003  4.980950698028665E-003
  3.320633798685776E-003  1.660316899342887E-003  0.000000000000000E+000
  1.660316899342888E-002  1.494285209408599E-002  1.328253519474311E-002
  1.162221829540022E-002  9.961901396057328E-003  8.301584496714441E-003
  6.641267597371552E-003  4.980950698028665E-003  3.320633798685776E-003
  1.660316899342887E-003  0.000000000000000E+000  1.660316899342888E-002
  1.494285209408599E-002  1.328253519474311E-002  1.162221829540022E-002
  9.961901396057328E-003  8.301584496714441E-003  6.641267597371552E-003
  4.980950698028665E-003  3.320633798685776E-003  1.660316899342887E-003
  0.000000000000000E+000  1.660316899342888E-002  1.494285209408599E-002
  1.328253519474311E-002  1.162221829540022E-002  9.961901396057328E-003
  8.301584496714441E-003  6.641267597371552E-003  4.980950698028665E-003
  3.320633798685776E-003  1.660316899342887E-003  0.000000000000000E+000
  1.660316899342888E-002  1.494285209408599E-002  1.328253519474311E-002
  1.162221829540022E-002  9.961901396057328E-003  8.301584496714441E-003
  6.641267597371552E-003  4.980950698028665E-003  3.320633798685776E-003
  1.660316899342887E-003  0.000000000000000E+000  1.660316899342888E-002
  1.494285209408599E-002  1.328253519474311E-002  1.162221829540022E-002
  9.961901396057328E-003  8.301584496714441E-003  6.641267597371552E-003
  4.980950698028665E-003  3.320633798685776E-003  1.660316899342887E-003
  0.000000000000000E+000  1.660316899342888E-002  1.494285209408599E-002
  1.328253519474311E-002  1.162221829540022E-002  9.961901396057328E-003
  8.301584496714441E-003  6.641267597371552E-003  4.980950698028665E-003
  3.320633798685776E-003  1.660316899342887E-003  0.000000000000000E+000
  1.660316899342888E-002  1.494285209408599E-002  1.328253519474311E-002
  1.162221829540022E-002  9.961901396057328E-003  8.301584496714441E-003
  6.641267597371552E-003  4.980950698028665E-003  3.320633798685776E-003
  1.660316899342887E-003  0.000000000000000E+000  1.660316899342888E-002
  1.494285209408599E-002  1.328253519474311E-002  1.162221829540022E-002
  9.961901396057328E-003  8.301584496714441E-003  6.641267597371552E-003
  4.980950698028665E-003  3.320633798685776E-003  1.660316899342887E-003
  0.000000000000000E+000  1.660316899342888E-002  1.494285209408599E-002
  1.328253519474311E-002  1.162221829540022E-002  9.961901396057328E-003
  8.301584496714441E-003  6.641267597371552E-003  4.980950698028665E-003
  3.320633798685776E-003  1.660316899342887E-003  0.000000000000000E+000
  1.660316899342888E-002  1.494285209408599E-002  1.328253519474311E-002
  1.162221829540022E-002  9.961901396057328E-003  8.301584496714441E-003
  6.641267597371552E-003  4.980950698028665E-003  3.320633798685776E-003
  1.660316899342887E-003  0.000000000000000E+000  1.660316899342888E-002
  1.494285209408599E-002  1.328253519474311E-002  1.162221829540022E-002
  9.961901396057328E-003  8.301584496714441E-003  6.641267597371552E-003
  4.980950698028665E-003  3.320633798685776E-003  1.660316899342887E-003
  0.000000000000000E+000  1.660316899342888E-002  1.494285209408599E-002
  1.328253519474311E-002  1.162221829540022E-002  9.961901396057328E-003
  8.301584496714441E-003  6.641267597371552E-003  4.980950698028665E-003
  3.320633798685776E-003  1.660316899342887E-003  0.000000000000000E+000
  1.660316899342888E-002  1.494285209408599E-002  1.328253519474311E-002
  1.162221829540022E-002  9.961901396057328E-003  8.301584496714441E-003
  6.641267597371552E-003  4.980950698028665E-003  3.320633798685776E-003
  1.660316899342887E-003  0.000000000000000E+000  1.660316899342888E-002
  1.494285209408599E-002  1.328253519474311E-002  1.162221829540022E-002
  9.961901396057328E-003  8.301584496714441E-003  6.641267597371552E-003
  4.980950698028665E-003  3.320633798685776E-003  1.660316899342887E-003
  0.000000000000000E+000  1.660316899342888E-002  1.494285209408599E-002
  1.328253519474311E-002  1.162221829540022E-002  9.961901396057328E-003
  8.301584496714441E-003  6.641267597371552E-003  4.980950698028665E-003
  3.320633798685776E-003  1.660316899342887E-003  0.000000000000000E+000
  1.660316899342888E-002  1.494285209408599E-002  1.328253519474311E-002
  1.162221829540022E-002  9.961901396057328E-003  8.301584496714441E-003
  6.641267597371552E-003  4.980950698028665E-003  3.320633798685776E-003
  1.660316899342887E-003  0.000000000000000E+000  1.660316899342888E-002
  1.494285209408599E-002  1.328253519474311E-002  1.162221829540022E-002
  9.961901396057328E-003  8.301584496714441E-003  6.641267597371552E-003
  4.980950698028665E-003  3.320633798685776E-003  1.660316899342887E-003
  0.000000000000000E+000  1.660316899342888E-002  1.494285209408599E-002
  1.328253519474311E-002  1.162221829540022E-002  9.961901396057328E-003
  8.301584496714441E-003  6.641267597371552E-003  4.980950698028665E-003
  3.320633798685776E-003  1.660316899342887E-003  0.000000000000000E+000
  1.660316899342888E-002  1.494285209408599E-002  1.328253519474311E-002
  1.162221829540022E-002  9.961901396057328E-003  8.301584496714441E-003
  6.641267597371552E-003  4.980950698028665E-003  3.320633798685776E-003
  1.660316899342887E-003  0.000000000000000E+000  1.660316899342888E-002
  1.494285209408599E-002  1.328253519474311E-002  1.162221829540022E-002
  9.961901396057328E-003  8.301584496714441E-003  6.641267597371552E-003
  4.980950698028665E-003  3.320633798685776E-003  1.660316899342887E-003
  0.000000000000000E+000  1.660316899342888E-002  1.494285209408599E-002
  1.328253519474311E-002  1.162221829540022E-002  9.961901396057328E-003
  8.301584496714441E-003  6.641267597371552E-003  4.980950698028665E-003
  3.320633798685776E-003  1.660316899342887E-003  0.000000000000000E+000
  1.660316899342888E-002  1.494285209408599E-002  1.328253519474311E-002
  1.162221829540022E-002  9.961901396057328E-003  8.301584496714441E-003
  6.641267597371552E-003  4.980950698028665E-003  3.320633798685776E-003
  1.660316899342887E-003  0.000000000000000E+000  1.660316899342888E-002
  1.494285209408599E-002  1.328253519474311E-002  1.162221829540022E-002
  9.961901396057328E-003  8.301584496714441E-003  6.641267597371552E-003
  4.980950698028665E-003  3.320633798685776E-003  1.660316899342887E-003
  0.000000000000000E+000
  3.177005653530721E-002  4.490990759997332E-002  5.360714194948381E-002
  6.034869157532874E-002  6.599727210302861E-002  6.978895774223814E-002
  7.183618526557835E-002  7.288558562572328E-002  7.287397436309530E-002
  7.190363129222042E-002  4.938359160705487E-002  7.119086464011730E-002
  8.571121248061123E-002  9.712736999753627E-002  0.106635953676136     
  0.113155239149704       0.116865302075856       0.118915249818606     
  0.119321760710029       0.118382071818187       5.546107196554962E-002
  8.316464537494833E-002  0.102571583473782       0.118338325381113     
  0.131406563102163       0.140733844588643       0.146647799406011     
  0.150327955875104       0.151888288691287       0.151403885181611     
  5.062087879192961E-002  7.954186688257606E-002  0.101828924780634     
  0.120691093864494       0.136518820555825       0.148532737334813     
  0.157013959354133       0.162799808548374       0.166019756636814     
  0.166498912045603       4.198731309336280E-002  6.922854512064645E-002
  9.227370739968972E-002  0.112642553346094       0.130284952632433     
  0.144704272075701       0.155955267901690       0.164322094004272     
  0.169774742970487       0.172023457765778       3.815496934674924E-002
  6.445874543518125E-002  8.785629686851401E-002  0.109172401875797     
  0.128276014979542       0.144843405905547       0.158742724008313     
  0.169931839145900       0.178175834850278       0.182922764700957     
  4.608957634733778E-002  7.571058441813901E-002  0.101556723690817     
  0.125014538580460       0.146272842354031       0.165257713858489     
  0.181823842854561       0.195787193101876       0.206823567335631     
  0.214195699502828       6.811331172062796E-002  0.106977516097314     
  0.138818689994900       0.166742201252390       0.191638696770104     
  0.213822322190326       0.233341909293757       0.250069698364139     
  0.263689801390207       0.273339410588683       0.102005522004115     
  0.155616459570735       0.197078431945928       0.232031350729742     
  0.262375308234620       0.288926200597487       0.312024987303623     
  0.331713366494547       0.347748403263761       0.359207230816240     
  0.144457821728260       0.217003211319445       0.271043844278751     
  0.315238263327425       0.352671831228150       0.384748582941934     
  0.412154511389454       0.435152968332757       0.453603788260775     
  0.466540371161738       0.192723360476067       0.287103226986174     
  0.355841971476451       0.410926152131823       0.456728431079470     
  0.495304075730330       0.527714379161426       0.554451533796218     
  0.575483346262261       0.589794139783530       0.244962871620136     
  0.363132077274465       0.447997423569993       0.515104192168717     
  0.570189141474712       0.616000219896971       0.653991113664248     
  0.684882929723426       0.708751604701575       0.724532518714892     
  0.299954107574334       0.443228857560435       0.545156784151338     
  0.625020846352087       0.689988938208568       0.743532704549356     
  0.787519181288790       0.822905547832093       0.849880348693237     
  0.867334564631434       0.356821617935130       0.526067727550815     
  0.645650025156235       0.738716275847006       0.813919235646884     
  0.875484391046329       0.925712497504516       0.965813792732816     
  0.996101357134168        1.01543670920203       0.415125252172025     
  0.610954843267106       0.748571152045879       0.855088979645371     
  0.940688095679297        1.01037753851460        1.06691704103208     
   1.11179598701348        1.14547500433174        1.16680887119493     
  0.474958789209212       0.698029744665293       0.854059751374803     
  0.974224292897786        1.07027115813905        1.14802657200720     
   1.21075224876088        1.26026299739370        1.29721582408255     
   1.32050672097675       0.537639094648987       0.789356001394167     
  0.964626964072049        1.09881999744333        1.20534607112689     
   1.29094015827270        1.35945284358461        1.41312151938404     
   1.45290322968387        1.47784685702374       0.613393686555030     
  0.898612365994507        1.09530298376220        1.24426718838635     
   1.36120420220963        1.45410428938389        1.52761995706795     
   1.58456105741300        1.62632578891841        1.65228880606279     
  0.749339654909848        1.08143300850040        1.30305487034539     
   1.46788554890184        1.59559913710687        1.69585268141453     
   1.77435246490615        1.83466040553792        1.87869917365300     
   1.90611456276582       0.952362234224474        1.34758373199283     
   1.59812239700558        1.77801184318176        1.91333719735835     
   2.01731125492847        2.09756422991233        2.15871093867724     
   2.20329887804883        2.23140538394459        1.05522596002284     
   1.48121388626474        1.74161971277528        1.92131015899344     
   2.05257474548970        2.15107817752533        2.22556035753488     
   2.28114402350438        2.32064737044894        2.34475684375647     
   1.02573977803386        1.42540607227409        1.66159354296779     
   1.81981611786682        1.93282091629424        2.01624646673656     
   2.07844755100339        2.12406164165140        2.15544129885180     
   2.17318639286365       0.900007856569752        1.22482510936627     
   1.40973276941370        1.53168418040077        1.61817026339235     
   1.68179252851105        1.72911565661377        1.76373503101708     
   1.78751777256634        1.80107244843983       0.692244403562673     
  0.912914256920165        1.03689788922325        1.11888656803069     
   1.17725002978236        1.22034185717767        1.25254458571261     
   1.27633857051852        1.29333682821690        1.30582523335434     
  0.421577633372362       0.545218420542601       0.615374460839877     
  0.662047992837865       0.695398225014213       0.720085570692082     
  0.738566604043398       0.752208900822627       0.761765604195475     
  0.767499811708691     
  0.000000000000000E+000  0.000000000000000E+000  0.000000000000000E+000
  0.000000000000000E+000  0.000000000000000E+000  0.000000000000000E+000
  0.000000000000000E+000  0.000000000000000E+000  0.000000000000000E+000
  0.000000000000000E+000  0.000000000000000E+000  0.000000000000000E+000
  0.000000000000000E+000  0.000000000000000E+000  0.000000000000000E+000
  0.000000000000000E+000  0.000000000000000E+000  0.000000000000000E+000
  0.000000000000000E+000  0.000000000000000E+000  0.000000000000000E+000
  0.000000000000000E+000  0.000000000000000E+000  0.000000000000000E+000
  0.000000000000000E+000  0.000000000000000E+000  0.000000000000000E+000
  0.000000000000000E+000  0.000000000000000E+000  0.000000000000000E+000
  0.000000000000000E+000  0.000000000000000E+000  0.000000000000000E+000
  0.000000000000000E+000  0.000000000000000E+000  0.000000000000000E+000
  0.000000000000000E+000  0.000000000000000E+000  0.000000000000000E+000
  0.000000000000000E+000  0.000000000000000E+000  0.000000000000000E+000
  0.000000000000000E+000  0.000000000000000E+000  0.000000000000000E+000
  0.000000000000000E+000  0.000000000000000E+000  0.000000000000000E+000
  0.000000000000000E+000  0.000000000000000E+000  0.000000000000000E+000
  0.000000000000000E+000  0.000000000000000E+000  0.000000000000000E+000
  0.000000000000000E+000  0.000000000000000E+000  0.000000000000000E+000
  0.000000000000000E+000  0.000000000000000E+000  0.000000000000000E+000
  0.000000000000000E+000  0.000000000000000E+000  0.000000000000000E+000
  0.000000000000000E+000  0.000000000000000E+000  0.000000000000000E+000
  0.000000000000000E+000  0.000000000000000E+000  0.000000000000000E+000
  0.000000000000000E+000  0.000000000000000E+000  0.000000000000000E+000
  0.000000000000000E+000  0.000000000000000E+000  0.000000000000000E+000
  0.000000000000000E+000  0.000000000000000E+000  0.000000000000000E+000
  0.000000000000000E+000  0.000000000000000E+000  0.000000000000000E+000
  0.000000000000000E+000  0.000000000000000E+000  0.000000000000000E+000
  0.000000000000000E+000  0.000000000000000E+000  0.000000000000000E+000
  0.000000000000000E+000  0.000000000000000E+000  0.000000000000000E+000
  0.000000000000000E+000  0.000000000000000E+000  0.000000000000000E+000
  0.000000000000000E+000  0.000000000000000E+000  0.000000000000000E+000
  0.000000000000000E+000  0.000000000000000E+000  0.000000000000000E+000
  0.000000000000000E+000  0.000000000000000E+000  0.000000000000000E+000
  0.000000000000000E+000  0.000000000000000E+000  0.000000000000000E+000
  0.000000000000000E+000  0.000000000000000E+000  0.000000000000000E+000
  0.000000000000000E+000  0.000000000000000E+000  0.000000000000000E+000
  0.000000000000000E+000  0.000000000000000E+000  0.000000000000000E+000
  0.000000000000000E+000  0.000000000000000E+000  0.000000000000000E+000