 Title = "Wing and Wake"
 VARIABLES = "X" "Y" "Z" "GAM" "skew"
 Zone I=   11 J=   26 K=1  T="Blade"
 DATAPACKING=BLOCK
 VARLOCATION=([4]=CELLCENTERED,[5]=CELLCENTERED)
  0.265044954086798       0.254121013860568       0.243197073634338     
  0.232273133408108       0.221349193181877       0.210425252955646     
  0.199501312729416       0.188577372503186       0.177653432276956     
  0.166729492050725       0.155805551824495       0.268115650372706     
  0.257191710146476       0.246267769920246       0.235343829694016     
  0.224419889467786       0.213495949241555       0.202572009015324     
  0.191648068789094       0.180724128562864       0.169800188336633     
  0.158876248110403       0.277279312515658       0.266355372289428     
  0.255431432063198       0.244507491836967       0.233583551610736     
  0.222659611384506       0.211735671158276       0.200811730932045     
  0.189887790705815       0.178963850479585       0.168039910253354     
  0.292391424089552       0.281467483863321       0.270543543637091     
  0.259619603410861       0.248695663184630       0.237771722958400     
  0.226847782732169       0.215923842505939       0.204999902279709     
  0.194075962053478       0.183152021827248       0.313213658067330     
  0.302289717841099       0.291365777614868       0.280441837388638     
  0.269517897162408       0.258593956936177       0.247670016709947     
  0.236746076483716       0.225822136257486       0.214898196031255     
  0.203974255805025       0.339417635380562       0.328493695154331     
  0.317569754928100       0.306645814701870       0.295721874475640     
  0.284797934249410       0.273873994023178       0.262950053796949     
  0.252026113570719       0.241102173344488       0.230178233118258     
  0.370590103653521       0.359666163427291       0.348742223201061     
  0.337818282974831       0.326894342748600       0.315970402522370     
  0.305046462296139       0.294122522069909       0.283198581843678     
  0.272274641617448       0.261350701391217       0.406239454440015     
  0.395315514213785       0.384391573987554       0.373467633761324     
  0.362543693535094       0.351619753308863       0.340695813082633     
  0.329771872856403       0.318847932630172       0.307923992403941     
  0.297000052177712       0.445803476182248       0.434879535956018     
  0.423955595729787       0.413031655503558       0.402107715277328     
  0.391183775051097       0.380259834824866       0.369335894598635     
  0.358411954372406       0.347488014146176       0.336564073919945     
  0.488658220622947       0.477734280396716       0.466810340170485     
  0.455886399944256       0.444962459718025       0.434038519491795     
  0.423114579265565       0.412190639039334       0.401266698813104     
  0.390342758586874       0.379418818360643       0.534127842842097     
  0.523203902615866       0.512279962389635       0.501356022163406     
  0.490432081937174       0.479508141710944       0.468584201484715     
  0.457660261258482       0.446736321032254       0.435812380806024     
  0.424888440579792       0.581495259735065       0.570571319508835     
  0.559647379282602       0.548723439056374       0.537799498830144     
  0.526875558603914       0.515951618377682       0.505027678151453     
  0.494103737925221       0.483179797698991       0.472255857472761     
  0.630013458841526       0.619089518615299       0.608165578389066     
  0.597241638162837       0.586317697936605       0.575393757710376     
  0.564469817484147       0.553545877257916       0.542621937031685     
  0.531697996805454       0.520774056579224       0.678917279178209     
  0.667993338951978       0.657069398725749       0.646145458499518     
  0.635221518273287       0.624297578047056       0.613373637820825     
  0.602449697594597       0.591525757368367       0.580601817142135     
  0.569677876915905       0.727435478284671       0.716511538058441     
  0.705587597832210       0.694663657605981       0.683739717379750     
  0.672815777153519       0.661891836927289       0.650967896701059     
  0.640043956474829       0.629120016248598       0.618196076022369     
  0.774802895177640       0.763878954951409       0.752955014725180     
  0.742031074498950       0.731107134272717       0.720183194046488     
  0.709259253820258       0.698335313594029       0.687411373367797     
  0.676487433141565       0.665563492915337       0.820272517396789     
  0.809348577170560       0.798424636944328       0.787500696718097     
  0.776576756491868       0.765652816265639       0.754728876039407     
  0.743804935813176       0.732880995586947       0.721957055360716     
  0.711033115134487       0.863127261837487       0.852203321611258     
  0.841279381385027       0.830355441158796       0.819431500932566     
  0.808507560706336       0.797583620480105       0.786659680253875     
  0.775735740027644       0.764811799801416       0.753887859575184     
  0.902691283579721       0.891767343353490       0.880843403127261     
  0.869919462901032       0.858995522674800       0.848071582448569     
  0.837147642222338       0.826223701996110       0.815299761769878     
  0.804375821543647       0.793451881317417       0.938340634366214     
  0.927416694139987       0.916492753913753       0.905568813687525     
  0.894644873461295       0.883720933235064       0.872796993008833     
  0.861873052782602       0.850949112556370       0.840025172330143     
  0.829101232103911       0.969513102639173       0.958589162412944     
  0.947665222186717       0.936741281960483       0.925817341734252     
  0.914893401508022       0.903969461281794       0.893045521055563     
  0.882121580829332       0.871197640603100       0.860273700376870     
  0.995717079952407       0.984793139726177       0.973869199499945     
  0.962945259273716       0.952021319047483       0.941097378821257     
  0.930173438595023       0.919249498368793       0.908325558142567     
  0.897401617916335       0.886477677690104        1.01653931393019     
   1.00561537370395       0.994691433477724       0.983767493251492     
  0.972843553025262       0.961919612799033       0.950995672572803     
  0.940071732346573       0.929147792120341       0.918223851894112     
  0.907299911667879        1.03165142550408        1.02072748527785     
   1.00980354505162       0.998879604825387       0.987955664599158     
  0.977031724372928       0.966107784146697       0.955183843920465     
  0.944259903694237       0.933335963468004       0.922412023241774     
   1.04081508764703        1.02989114742080        1.01896720719457     
   1.00804326696834       0.997119326742108       0.986195386515876     
  0.975271446289648       0.964347506063417       0.953423565837184     
  0.942499625610955       0.931575685384725        1.04388578393294     
   1.03296184370671        1.02203790348048        1.01111396325425     
   1.00019002302801       0.989266082801787       0.978342142575556     
  0.967418202349325       0.956494262123095       0.945570321896862     
  0.934646381670636     
  4.550301796706856E-002  2.998485513355369E-002  1.446669230003839E-002
 -1.051470533477197E-003 -1.656963336699247E-002 -3.208779620050806E-002
 -4.760595903402325E-002 -6.312412186753860E-002 -7.864228470105396E-002
 -9.416044753456916E-002 -0.109678610368085       4.334141526705510E-002
  2.782325243353992E-002  1.230508960002512E-002 -3.213073233490260E-003
 -1.873123606700586E-002 -3.424939890052102E-002 -4.976756173403635E-002
 -6.528572456755152E-002 -8.080388740106728E-002 -9.632205023458214E-002
 -0.111840213068098       3.689069693287434E-002  2.137253409935900E-002
  5.854371265843735E-003 -9.663791567671711E-003 -2.518195440118706E-002
 -4.070011723470245E-002 -5.621828006821798E-002 -7.173644290173292E-002
 -8.725460573524860E-002 -0.102772768568764      -0.118290931402279     
  2.625259464612658E-002  1.073443181261181E-002 -4.783731020904014E-003
 -2.030189385441913E-002 -3.582005668793440E-002 -5.133821952144972E-002
 -6.685638235496537E-002 -8.237454518848032E-002 -9.789270802199564E-002
 -0.113410870855511      -0.128929033689026       1.159487763476970E-002
 -3.923285198745144E-003 -1.944144803226062E-002 -3.495961086577645E-002
 -5.047777369929147E-002 -6.599593653280700E-002 -8.151409936632230E-002
 -9.703226219983746E-002 -0.112550425033353      -0.128068587866868     
 -0.143586750700383      -6.851293147831750E-003 -2.236945598134707E-002
 -3.788761881486202E-002 -5.340578164837757E-002 -6.892394448189310E-002
 -8.444210731540852E-002 -9.996027014892370E-002 -0.115478432982439     
 -0.130996595815954      -0.146514758649470      -0.162032921482985     
 -2.879501056922831E-002 -4.431317340274346E-002 -5.983133623625858E-002
 -7.534949906977421E-002 -9.086766190328982E-002 -0.106385824736805     
 -0.121903987570320      -0.137422150403836      -0.152940313237351     
 -0.168458476070866      -0.183976638904381      -5.389020909714277E-002
 -6.940837193065805E-002 -8.492653476417351E-002 -0.100444697597689     
 -0.115962860431204      -0.131481023264720      -0.146999186098235     
 -0.162517348931750      -0.178035511765266      -0.193553674598781     
 -0.209071837432296      -8.174112245964568E-002 -9.725928529316100E-002
 -0.112777448126676      -0.128295610960191      -0.143813773793707     
 -0.159331936627222      -0.174850099460738      -0.190368262294252     
 -0.205886425127768      -0.221404587961284      -0.236922750794798     
 -0.111908525115680      -0.127426687949195      -0.142944850782710     
 -0.158463013616226      -0.173981176449741      -0.189499339283256     
 -0.205017502116772      -0.220535664950287      -0.236053827783803     
 -0.251571990617318      -0.267090153450833      -0.143916659104228     
 -0.159434821937743      -0.174952984771259      -0.190471147604775     
 -0.205989310438289      -0.221507473271804      -0.237025636105319     
 -0.252543798938835      -0.268061961772351      -0.283580124605866     
 -0.299098287439381      -0.177260737031556      -0.192778899865073     
 -0.208297062698588      -0.223815225532103      -0.239333388365619     
 -0.254851551199135      -0.270369714032649      -0.285887876866165     
 -0.301406039699679      -0.316924202533195      -0.332442365366710     
 -0.211414902869967      -0.226933065703485      -0.242451228536998     
 -0.257969391370515      -0.273487554204029      -0.289005717037545     
 -0.304523879871060      -0.320042042704576      -0.335560205538091     
 -0.351078368371605      -0.366596531205121      -0.245840525021478     
 -0.261358687854993      -0.276876850688510      -0.292395013522024     
 -0.307913176355539      -0.323431339189055      -0.338949502022570     
 -0.354467664856087      -0.369985827689601      -0.385503990523117     
 -0.401022153356631      -0.279994690859889      -0.295512853693405     
 -0.311031016526920      -0.326549179360435      -0.342067342193949     
 -0.357585505027465      -0.373103667860981      -0.388621830694497     
 -0.404139993528012      -0.419658156361527      -0.435176319195043     
 -0.313338768787220      -0.328856931620735      -0.344375094454251     
 -0.359893257287766      -0.375411420121280      -0.390929582954795     
 -0.406447745788310      -0.421965908621827      -0.437484071455342     
 -0.453002234288857      -0.468520397122373      -0.345346902775766     
 -0.360865065609282      -0.376383228442797      -0.391901391276313     
 -0.407419554109829      -0.422937716943343      -0.438455879776860     
 -0.453974042610374      -0.469492205443888      -0.485010368277405     
 -0.500528531110920      -0.375514305431801      -0.391032468265316     
 -0.406550631098832      -0.422068793932348      -0.437586956765863     
 -0.453105119599378      -0.468623282432893      -0.484141445266409     
 -0.499659608099924      -0.515177770933440      -0.530695933766953     
 -0.403365218794302      -0.418883381627819      -0.434401544461334     
 -0.449919707294851      -0.465437870128364      -0.480956032961879     
 -0.496474195795396      -0.511992358628911      -0.527510521462427     
 -0.543028684295941      -0.558546847129456      -0.428460417322217     
 -0.443978580155734      -0.459496742989248      -0.475014905822764     
 -0.490533068656279      -0.506051231489795      -0.521569394323310     
 -0.537087557156826      -0.552605719990339      -0.568123882823857     
 -0.583642045657370      -0.450404134743612      -0.465922297577131     
 -0.481440460410646      -0.496958623244159      -0.512476786077675     
 -0.527994948911190      -0.543513111744707      -0.559031274578223     
 -0.574549437411737      -0.590067600245251      -0.605585763078767     
 -0.468850305526215      -0.484368468359732      -0.499886631193247     
 -0.515404794026762      -0.530922956860276      -0.546441119693794     
 -0.561959282527307      -0.577477445360824      -0.592995608194339     
 -0.608513771027855      -0.624031933861372      -0.483508022537572     
 -0.499026185371089      -0.514544348204604      -0.530062511038119     
 -0.545580673871634      -0.561098836705148      -0.576616999538663     
 -0.592135162372180      -0.607653325205694      -0.623171488039211     
 -0.638689650872726      -0.494146124824320      -0.509664287657836     
 -0.525182450491351      -0.540700613324867      -0.556218776158382     
 -0.571736938991901      -0.587255101825410      -0.602773264658926     
 -0.618291427492444      -0.633809590325957      -0.649327753159474     
 -0.500596843158502      -0.516115005992018      -0.531633168825535     
 -0.547151331659048      -0.562669494492564      -0.578187657326076     
 -0.593705820159594      -0.609223982993109      -0.624742145826623     
 -0.640260308660139      -0.655778471493654      -0.502758445858515     
 -0.518276608692030      -0.533794771525545      -0.549312934359061     
 -0.564831097192575      -0.580349260026091      -0.595867422859606     
 -0.611385585693124      -0.626903748526638      -0.642421911360151     
 -0.657940074193671     
  1.660316899342888E-002  1.494285209408599E-002  1.328253519474311E-002
  1.162221829540022E-002  9.961901396057328E-003  8.301584496714441E-003
  6.641267597371552E-003  4.980950698028665E-003  3.320633798685776E-003
  1.660316899342887E-003  0.000000000000000E+000  1.660316899342888E-002
  1.494285209408599E-002  1.328253519474311E-002  1.162221829540022E-002
  9.961901396057328E-003  8.301584496714441E-003  6.641267597371552E-003
  4.980950698028665E-003  3.320633798685776E-003  1.660316899342887E-003
  0.000000000000000E+000  1.660316899342888E-002  1.494285209408599E-002
  1.328253519474311E-002  1.162221829540022E-002  9.961901396057328E-003
  8.301584496714441E-003  6.641267597371552E-003  4.980950698028665E-003
  3.320633798685776E-003  1.660316899342887E-003  0.000000000000000E+000
  1.660316899342888E-002  1.494285209408599E-002  1.328253519474311E-002
  1.162221829540022E-002  9.961901396057328E-003  8.301584496714441E-003
  6.641267597371552E-003  4.980950698028665E-003  3.320633798685776E-003
  1.660316899342887E-003  0.000000000000000E+000  1.660316899342888E-002
  1.494285209408599E-002  1.328253519474311E-002  1.162221829540022E-002
  9.961901396057328E-003  8.301584496714441E-003  6.641267597371552E-003
  4.980950698028665E-003  3.320633798685776E-003  1.660316899342887E-003
  0.000000000000000E+000  1.660316899342888E-002  1.494285209408599E-002
  1.328253519474311E-002  1.162221829540022E-002  9.961901396057328E-003
  8.301584496714441E-003  6.641267597371552E-003  4.980950698028665E-003
  3.320633798685776E-003  1.660316899342887E-003  0.000000000000000E+000
  1.660316899342888E-002  1.494285209408599E-002  1.328253519474311E-002
  1.162221829540022E-002  9.961901396057328E-003  8.301584496714441E-003
  6.641267597371552E-003  4.980950698028665E-003  3.320633798685776E-003
  1.660316899342887E-003  0.000000000000000E+000  1.660316899342888E-002
  1.494285209408599E-002  1.328253519474311E-002  1.162221829540022E-002
  9.961901396057328E-003  8.301584496714441E-003  6.641267597371552E-003
  4.980950698028665E-003  3.320633798685776E-003  1.660316899342887E-003
  0.000000000000000E+000  1.660316899342888E-002  1.494285209408599E-002
  1.328253519474311E-002  1.162221829540022E-002  9.961901396057328E-003
  8.301584496714441E-003  6.641267597371552E-003  4.980950698028665E-003
  3.320633798685776E-003  1.660316899342887E-003  0.000000000000000E+000
  1.660316899342888E-002  1.494285209408599E-002  1.328253519474311E-002
  1.162221829540022E-002  9.961901396057328E-003  8.301584496714441E-003
  6.641267597371552E-003  4.980950698028665E-003  3.320633798685776E-003
  1.660316899342887E-003  0.000000000000000E+000  1.660316899342888E-002
  1.494285209408599E-002  1.328253519474311E-002  1.162221829540022E-002
  9.961901396057328E-003  8.301584496714441E-003  6.641267597371552E-003
  4.980950698028665E-003  3.320633798685776E-003  1.660316899342887E-003
  0.000000000000000E+000  1.660316899342888E-002  1.494285209408599E-002
  1.328253519474311E-002  1.162221829540022E-002  9.961901396057328E-003
  8.301584496714441E-003  6.641267597371552E-003  4.980950698028665E-003
  3.320633798685776E-003  1.660316899342887E-003  0.000000000000000E+000
  1.660316899342888E-002  1.494285209408599E-002  1.328253519474311E-002
  1.162221829540022E-002  9.961901396057328E-003  8.301584496714441E-003
  6.641267597371552E-003  4.980950698028665E-003  3.320633798685776E-003
  1.660316899342887E-003  0.000000000000000E+000  1.660316899342888E-002
  1.494285209408599E-002  1.328253519474311E-002  1.162221829540022E-002
  9.961901396057328E-003  8.301584496714441E-003  6.641267597371552E-003
  4.980950698028665E-003  3.320633798685776E-003  1.660316899342887E-003
  0.000000000000000E+000  1.660316899342888E-002  1.494285209408599E-002
  1.328253519474311E-002  1.162221829540022E-002  9.961901396057328E-003
  8.301584496714441E-003  6.641267597371552E-003  4.980950698028665E-003
  3.320633798685776E-003  1.660316899342887E-003  0.000000000000000E+000
  1.660316899342888E-002  1.494285209408599E-002  1.328253519474311E-002
  1.162221829540022E-002  9.961901396057328E-003  8.301584496714441E-003
  6.641267597371552E-003  4.980950698028665E-003  3.320633798685776E-003
  1.660316899342887E-003  0.000000000000000E+000  1.660316899342888E-002
  1.494285209408599E-002  1.328253519474311E-002  1.162221829540022E-002
  9.961901396057328E-003  8.301584496714441E-003  6.641267597371552E-003
  4.980950698028665E-003  3.320633798685776E-003  1.660316899342887E-003
  0.000000000000000E+000  1.660316899342888E-002  1.494285209408599E-002
  1.328253519474311E-002  1.162221829540022E-002  9.961901396057328E-003
  8.301584496714441E-003  6.641267597371552E-003  4.980950698028665E-003
  3.320633798685776E-003  1.660316899342887E-003  0.000000000000000E+000
  1.660316899342888E-002  1.494285209408599E-002  1.328253519474311E-002
  1.162221829540022E-002  9.961901396057328E-003  8.301584496714441E-003
  6.641267597371552E-003  4.980950698028665E-003  3.320633798685776E-003
  1.660316899342887E-003  0.000000000000000E+000  1.660316899342888E-002
  1.494285209408599E-002  1.328253519474311E-002  1.162221829540022E-002
  9.961901396057328E-003  8.301584496714441E-003  6.641267597371552E-003
  4.980950698028665E-003  3.320633798685776E-003  1.660316899342887E-003
  0.000000000000000E+000  1.660316899342888E-002  1.494285209408599E-002
  1.328253519474311E-002  1.162221829540022E-002  9.961901396057328E-003
  8.301584496714441E-003  6.641267597371552E-003  4.980950698028665E-003
  3.320633798685776E-003  1.660316899342887E-003  0.000000000000000E+000
  1.660316899342888E-002  1.494285209408599E-002  1.328253519474311E-002
  1.162221829540022E-002  9.961901396057328E-003  8.301584496714441E-003
  6.641267597371552E-003  4.980950698028665E-003  3.320633798685776E-003
  1.660316899342887E-003  0.000000000000000E+000  1.660316899342888E-002
  1.494285209408599E-002  1.328253519474311E-002  1.162221829540022E-002
  9.961901396057328E-003  8.301584496714441E-003  6.641267597371552E-003
  4.980950698028665E-003  3.320633798685776E-003  1.660316899342887E-003
  0.000000000000000E+000  1.660316899342888E-002  1.494285209408599E-002
  1.328253519474311E-002  1.162221829540022E-002  9.961901396057328E-003
  8.301584496714441E-003  6.641267597371552E-003  4.980950698028665E-003
  3.320633798685776E-003  1.660316899342887E-003  0.000000000000000E+000
  1.660316899342888E-002  1.494285209408599E-002  1.328253519474311E-002
  1.162221829540022E-002  9.961901396057328E-003  8.301584496714441E-003
  6.641267597371552E-003  4.980950698028665E-003  3.320633798685776E-003
  1.660316899342887E-003  0.000000000000000E+000  1.660316899342888E-002
  1.494285209408599E-002  1.328253519474311E-002  1.162221829540022E-002
  9.961901396057328E-003  8.301584496714441E-003  6.641267597371552E-003
  4.980950698028665E-003  3.320633798685776E-003  1.660316899342887E-003
  0.000000000000000E+000
  2.429252457345186E-003  1.429530337297418E-002  3.015277283216248E-002
  4.992787899049957E-002  7.465615255001082E-002  0.105269899320060     
  0.140412031972589       0.177099426655460       0.211844091671555     
  0.238784233637699       5.063720556775351E-003  2.467287211126883E-002
  5.101730443487731E-002  8.370671627518911E-002  0.124282358475382     
  0.174557765645371       0.232632421218485       0.293726793753063     
  0.352328778329657       0.399175130576291       9.575450584230049E-003
  3.540287892683250E-002  7.006526580524901E-002  0.112683082672352     
  0.164658936603957       0.228429601959733       0.302890273251819     
  0.382428805599931       0.460037330581002       0.522697053105937     
  1.494256772181950E-002  4.481085464427340E-002  8.419609253410022E-002
  0.132126005186615       0.189200062137733       0.256719569464049     
  0.334569945972953       0.419153444362946       0.503894529013106     
  0.575418916318761       2.080382536708596E-002  5.276308486281958E-002
  9.346249677116938E-002  0.142063272086155       0.198229686571138     
  0.261701007408914       0.332315400332616       0.409424282502610     
  0.489080573682262       0.559307433660155       2.914300249174458E-002
  6.252579258617447E-002  0.102134989402393       0.147579583056300     
  0.198313946633889       0.253824184093191       0.313859243127201     
  0.378349481612716       0.444905896065361       0.505141125651832     
  4.381738047541432E-002  8.039953291751592E-002  0.119009004715354     
  0.160567694652559       0.205118603400633       0.252466183171543     
  0.302256844584849       0.353906484410631       0.406066363394300     
  0.454753333567018       6.820606573021017E-002  0.112554569534318     
  0.153394356689787       0.193669103152586       0.234248319702063     
  0.275280870307429       0.316490002121969       0.357286094615179     
  0.396766191988810       0.432567160485120       0.102839322093290     
  0.160583896439088       0.208263806671659       0.251322400939608     
  0.291565475343135       0.329628681014384       0.365594823390541     
  0.399212678875486       0.429837771895167       0.455525087041642     
  0.145680768368657       0.221758149297859       0.280612881242685     
  0.330601200794462       0.374628720183580       0.413946103461028     
  0.449074204312590       0.480095833304707       0.506628476528551     
  0.527114800277615       0.194817099604328       0.292757357798814     
  0.365771425188991       0.425610103378871       0.476463383827365     
  0.520237917591570       0.557875814470190       0.589751381289293     
  0.615690559146729       0.634368193469035       0.248237027105284     
  0.370202241343758       0.459229739721624       0.530650876201792     
  0.590041879865551       0.640031976727755       0.681991210300849     
  0.716567423145133       0.743754387262173       0.762324617292534     
  0.304420741032586       0.451633317471720       0.557522495856377     
  0.641290487582981       0.709998066730609       0.767029560227903     
  0.814191765591368       0.852398773510536       0.881799812277734     
  0.901203253681628       0.362110447077509       0.535190297579047     
  0.658330427347464       0.754745282490339       0.833054214140734     
  0.897437857887612       0.950162084305730       0.992419312563207     
   1.02451164877323        1.04526008435203       0.420372887778803     
  0.619579208537573       0.760144841142678       0.869336818353075     
  0.957351832591265        1.02918889157800        1.08759459146956     
   1.13405435645486        1.16903554928517        1.19137710656396     
  0.479239184530797       0.704888507962784       0.863086855768406     
  0.985169042010868        1.08291736735018        1.16216515446446     
   1.22617549824901        1.27676575041777        1.31460127825107     
   1.33857783348099       0.540311798189709       0.793571468029926     
  0.970113857823507        1.10542433759944        1.21294203645868     
   1.29940929315831        1.36868198241914        1.42300437463569     
   1.46334085945295        1.48873995922283       0.613582343573822     
  0.899033086345219        1.09599687981555        1.24525055695044     
   1.36247809647071        1.45566435699541        1.52946425394392     
   1.58669740433607        1.62877653819735        1.65508402742393     
  0.743477080832723        1.07384645748058        1.29461418811150     
   1.45880388858573        1.58598776572101        1.68581003470707     
   1.76398361542770        1.82408963519078        1.86808834564893     
   1.89569563564883       0.943814451025949        1.33586771586578     
   1.58462075814276        1.76321230482390        1.89752829225952     
   2.00071984323920        2.08040563104295        2.14121443231343     
   2.18574122070629        2.21415037852126        1.04965766236922     
   1.47306730203425        1.73185823105520        1.91046602460721     
   2.04095330647578        2.13890765753881        2.21305517607283     
   2.26853438048549        2.30820822185756        2.33282745203167     
   1.02290947569648        1.42106884596573        1.65620026530892     
   1.81363972619977        1.92606460342089        2.00909229577728     
   2.07107534144772        2.11666724366386        2.14825893765357     
   2.16649996486185       0.898711642070765        1.22267227963008     
   1.40692579353849        1.52837553568831        1.61449023205056     
   1.67786506108152        1.72506769614904        1.75970884348369     
   1.78368547807978        1.79763954126848       0.691708887891901     
  0.911893569395282        1.03548571189741        1.11717052554778     
   1.17531089964643        1.21825822372564        1.25039800368070     
   1.27422129494803        1.29136066141759        1.30412311703468     
  0.421346215560087       0.544724731898263       0.614665595351423     
  0.661171567668840       0.694399293361391       0.719008219811740     
  0.737456782893208       0.751118688799222       0.760757949762249     
  0.766650081220654     
  0.000000000000000E+000  0.000000000000000E+000  0.000000000000000E+000
  0.000000000000000E+000  0.000000000000000E+000  0.000000000000000E+000
  0.000000000000000E+000  0.000000000000000E+000  0.000000000000000E+000
  0.000000000000000E+000  0.000000000000000E+000  0.000000000000000E+000
  0.000000000000000E+000  0.000000000000000E+000  0.000000000000000E+000
  0.000000000000000E+000  0.000000000000000E+000  0.000000000000000E+000
  0.000000000000000E+000  0.000000000000000E+000  0.000000000000000E+000
  0.000000000000000E+000  0.000000000000000E+000  0.000000000000000E+000
  0.000000000000000E+000  0.000000000000000E+000  0.000000000000000E+000
  0.000000000000000E+000  0.000000000000000E+000  0.000000000000000E+000
  0.000000000000000E+000  0.000000000000000E+000  0.000000000000000E+000
  0.000000000000000E+000  0.000000000000000E+000  0.000000000000000E+000
  0.000000000000000E+000  0.000000000000000E+000  0.000000000000000E+000
  0.000000000000000E+000  0.000000000000000E+000  0.000000000000000E+000
  0.000000000000000E+000  0.000000000000000E+000  0.000000000000000E+000
  0.000000000000000E+000  0.000000000000000E+000  0.000000000000000E+000
  0.000000000000000E+000  0.000000000000000E+000  0.000000000000000E+000
  0.000000000000000E+000  0.000000000000000E+000  0.000000000000000E+000
  0.000000000000000E+000  0.000000000000000E+000  0.000000000000000E+000
  0.000000000000000E+000  0.000000000000000E+000  0.000000000000000E+000
  0.000000000000000E+000  0.000000000000000E+000  0.000000000000000E+000
  0.000000000000000E+000  0.000000000000000E+000  0.000000000000000E+000
  0.000000000000000E+000  0.000000000000000E+000  0.000000000000000E+000
  0.000000000000000E+000  0.000000000000000E+000  0.000000000000000E+000
  0.000000000000000E+000  0.000000000000000E+000  0.000000000000000E+000
  0.000000000000000E+000  0.000000000000000E+000  0.000000000000000E+000
  0.000000000000000E+000  0.000000000000000E+000  0.000000000000000E+000
  0.000000000000000E+000  0.000000000000000E+000  0.000000000000000E+000
  0.000000000000000E+000  0.000000000000000E+000  0.000000000000000E+000
  0.000000000000000E+000  0.000000000000000E+000  0.000000000000000E+000
  0.000000000000000E+000  0.000000000000000E+000  0.000000000000000E+000
  0.000000000000000E+000  0.000000000000000E+000  0.000000000000000E+000
  0.000000000000000E+000  0.000000000000000E+000  0.000000000000000E+000
  0.000000000000000E+000  0.000000000000000E+000  0.000000000000000E+000
  0.000000000000000E+000  0.000000000000000E+000  0.000000000000000E+000
  0.000000000000000E+000  0.000000000000000E+000  0.000000000000000E+000
  0.000000000000000E+000  0.000000000000000E+000  0.000000000000000E+000
  0.000000000000000E+000  0.000000000000000E+000  0.000000000000000E+000
  0.000000000000000E+000  0.000000000000000E+000  0.000000000000000E+000