 Title = "Wing and Wake"
 VARIABLES = "X" "Y" "Z" "GAM" "skew"
 Zone I=   11 J=   26 K=1  T="Blade"
 DATAPACKING=BLOCK
 VARLOCATION=([4]=CELLCENTERED,[5]=CELLCENTERED)
 -4.548452013118384E-002 -2.996711972704780E-002 -1.444971932291122E-002
  1.067681081225448E-003  1.658508148536180E-002  3.210248188949850E-002
  4.761988229363497E-002  6.313728269777141E-002  7.865468310190792E-002
  9.417208350604429E-002  0.109689483910181      -4.332270312978689E-002
 -2.780530272565051E-002 -1.228790232151440E-002  3.229498082622097E-003
  1.874689848675880E-002  3.426429889089505E-002  4.978169929503168E-002
  6.529909969916796E-002  8.081650010330479E-002  9.633390050744088E-002
  0.111851300911578      -3.687134527111588E-002 -2.135394486697928E-002
 -5.836544462843158E-003  9.680855941293517E-003  2.519825634542999E-002
  4.071565674956667E-002  5.623305715370326E-002  7.175045755783942E-002
  8.726785796197609E-002  0.102785258366113       0.118302658770249     
 -2.623218832245519E-002 -1.071478791831904E-002  4.802612485817727E-003
  2.032001288995415E-002  3.583741329409052E-002  5.135481369822694E-002
  6.687221410236364E-002  8.238961450649987E-002  9.790701491063632E-002
  0.113424415314773       0.128941815718909      -1.157301814441043E-002
  3.944382259725709E-003  1.946178266386225E-002  3.497918306799912E-002
  5.049658347213549E-002  6.601398387627205E-002  8.153138428040838E-002
  9.704878468454478E-002  0.112566185088681       0.128083585492818     
  0.143600985896954       6.874981392347040E-003  2.239238179648334E-002
  3.790978220061961E-002  5.342718260475633E-002  6.894458300889293E-002
  8.446198341302921E-002  9.997938381716583E-002  0.115496784221302     
  0.131014184625439       0.146531585029575       0.162048985433712     
  2.882087431482178E-002  4.433827471895818E-002  5.985567512309470E-002
  7.537307552723134E-002  9.089047593136779E-002  0.106407876335504     
  0.121925276739640       0.137442677143778       0.152960077547914     
  0.168477477952050       0.183994878356186       5.391856078178583E-002
  6.943596118592202E-002  8.495336159005883E-002  0.100470761994195     
  0.115988162398332       0.131505562802468       0.147022963206605     
  0.162540363610741       0.178057764014878       0.193575164419014     
  0.209092564823151       8.177223528502388E-002  9.728963568916009E-002
  0.112807036093296       0.128324436497433       0.143841836901569     
  0.159359237305706       0.174876637709842       0.190394038113978     
  0.205911438518115       0.221428838922252       0.236946239326388     
  0.111942628738640       0.127460029142777       0.142977429546913     
  0.158494829951049       0.174012230355186       0.189529630759322     
  0.205047031163459       0.220564431567595       0.236081831971732     
  0.251599232375869       0.267116632780004       0.143953936014952     
  0.159471336419089       0.174988736823226       0.190506137227363     
  0.206023537631498       0.221540938035635       0.237058338439772     
  0.252575738843908       0.268093139248045       0.283610539652181     
  0.299127940056317       0.177301319675585       0.192818720079723     
  0.208336120483859       0.223853520887995       0.239370921292132     
  0.254888321696269       0.270405722100405       0.285923122504542     
  0.301440522908677       0.316957923312814       0.332475323716951     
  0.211458871559450       0.226976271963588       0.242493672367723     
  0.258011072771860       0.273528473175996       0.289045873580133     
  0.304563273984270       0.320080674388406       0.335598074792543     
  0.351115475196679       0.366632875600815       0.245887906668605     
  0.261405307072742       0.276922707476879       0.292440107881015     
  0.307957508285150       0.323474908689287       0.338992309093424     
  0.354509709497561       0.370027109901697       0.385544510305834     
  0.401061910709970       0.280045458552470       0.295562858956606     
  0.311080259360743       0.326597659764879       0.342115060169015     
  0.357632460573151       0.373149860977288       0.388667261381425     
  0.404184661785562       0.419702062189697       0.435219462593834     
  0.313392842213104       0.328910242617240       0.344427643021377     
  0.359945043425514       0.375462443829649       0.390979844233785     
  0.406497244637921       0.422014645042060       0.437532045446195     
  0.453049445850331       0.468566846254468       0.345404149489416     
  0.360921549893552       0.376438950297688       0.391956350701826     
  0.407473751105962       0.422991151510098       0.438508551914235     
  0.454025952318371       0.469543352722507       0.485060753126644     
  0.500578153530781       0.375574542943032       0.391091943347168     
  0.406609343751306       0.422126744155443       0.437644144559578     
  0.453161544963715       0.468678945367851       0.484196345771988     
  0.499713746176125       0.515231146580261       0.530748546984396     
  0.403428217446269       0.418945617850406       0.434463018254543     
  0.449980418658680       0.465497819062815       0.481015219466952     
  0.496532619871089       0.512050020275225       0.527567420679362     
  0.543084821083498       0.558602221487634       0.428525903913233     
  0.444043304317370       0.459560704721507       0.475078105125643     
  0.490595505529780       0.506112905933917       0.521630306338053     
  0.537147706742190       0.552665107146325       0.568182507550462     
  0.583699907954597       0.450471796835707       0.465989197239845     
  0.481506597643982       0.497023998048117       0.512541398452253     
  0.528058798856390       0.543576199260528       0.559093599664664     
  0.574611000068800       0.590128400472936       0.605645800877072     
  0.468919796372465       0.484437196776602       0.499954597180739     
  0.515471997584875       0.530989397989011       0.546506798393150     
  0.562024198797284       0.577541599201422       0.593058999605558     
  0.608576400009695       0.624093800413833       0.483578966550511     
  0.499096366954648       0.514613767358784       0.530131167762920     
  0.545648568167057       0.561165968571192       0.576683368975329     
  0.592200769379466       0.607718169783601       0.623235570187739     
  0.638752970591876       0.494218123499172       0.509735523903309     
  0.525252924307444       0.540770324711581       0.556287725115718     
  0.571805125519857       0.587322525923989       0.602839926328126     
  0.618357326732264       0.633874727136399       0.649392127540536     
  0.500669481357843       0.516186881761979       0.531704282166117     
  0.547221682570252       0.562739082974389       0.578256483378523     
  0.593773883782661       0.609291284186798       0.624808684590933     
  0.640326084995070       0.655843485399206       0.502831298359240     
  0.518348698763376       0.533866099167513       0.549383499571649     
  0.564900899975785       0.580418300379921       0.595935700784057     
  0.611453101188197       0.626970501592333       0.642487901996466     
  0.658005302400606     
  0.265048129137749       0.254123105911620       0.243198082685491     
  0.232273059459362       0.221348036233233       0.210423013007103     
  0.199497989780975       0.188572966554846       0.177647943328717     
  0.166722920102588       0.155797896876459       0.268118674555987     
  0.257193651329858       0.246268628103730       0.235343604877601     
  0.224418581651472       0.213493558425343       0.202568535199214     
  0.191643511973085       0.180718488746956       0.169793465520827     
  0.158868442294698       0.277281886475203       0.266356863249075     
  0.255431840022946       0.244506816796816       0.233581793570687     
  0.222656770344559       0.211731747118430       0.200806723892301     
  0.189881700666172       0.178956677440043       0.168031654213914     
  0.292393255569593       0.281468232343464       0.270543209117336     
  0.259618185891207       0.248693162665077       0.237768139438949     
  0.226843116212819       0.215918092986690       0.204993069760562     
  0.194068046534433       0.183143023308304       0.313214466521445     
  0.302289443295315       0.291364420069185       0.280439396843057     
  0.269514373616928       0.258589350390799       0.247664327164670     
  0.236739303938541       0.225814280712412       0.214889257486283     
  0.203964234260154       0.339417156396056       0.328492133169927     
  0.317567109943797       0.306642086717669       0.295717063491540     
  0.284792040265411       0.273867017039281       0.262941993813153     
  0.252016970587024       0.241091947360895       0.230166924134766     
  0.370588093121378       0.359663069895249       0.348738046669121     
  0.337813023442992       0.326888000216862       0.315962976990734     
  0.305037953764605       0.294112930538476       0.283187907312346     
  0.272262884086218       0.261337860860088       0.406235692404639     
  0.395310669178510       0.384385645952381       0.373460622726252     
  0.362535599500124       0.351610576273994       0.340685553047865     
  0.329760529821736       0.318835506595607       0.307910483369478     
  0.296985460143350       0.445797770310295       0.434872747084167     
  0.423947723858037       0.413022700631909       0.402097677405780     
  0.391172654179651       0.380247630953522       0.369322607727393     
  0.358397584501264       0.347472561275135       0.336547538049006     
  0.488650409236538       0.477725386010407       0.466800362784279     
  0.455875339558150       0.444950316332021       0.434025293105892     
  0.423100269879764       0.412175246653634       0.401250223427506     
  0.390325200201377       0.379400176975248       0.534117797468571     
  0.523192774242443       0.512267751016313       0.501342727790185     
  0.490417704564055       0.479492681337926       0.468567658111798     
  0.457642634885667       0.446717611659540       0.435792588433411     
  0.424867565207282       0.581482887133077       0.570557863906949     
  0.559632840680818       0.548707817454690       0.537782794228561     
  0.526857771002432       0.515932747776303       0.505007724550174     
  0.494082701324044       0.483157678097916       0.472232654871787     
  0.629998702471511       0.619073679245384       0.608148656019254     
  0.597223632793126       0.586298609566995       0.575373586340868     
  0.564448563114740       0.553523539888609       0.542598516662480     
  0.531673493436352       0.520748470210223       0.678900120094047     
  0.667975096867918       0.657050073641790       0.646125050415660     
  0.635200027189531       0.624275003963402       0.613349980737272     
  0.602424957511144       0.591499934285016       0.580574911058886     
  0.569649887832757       0.727415935432482       0.716490912206353     
  0.705565888980224       0.694640865754096       0.683715842527966     
  0.672790819301837       0.661865796075708       0.650940772849580     
  0.640015749623451       0.629090726397321       0.618165703171193     
  0.774781025096988       0.763856001870858       0.752930978644730     
  0.742005955418602       0.731080932192471       0.720155908966342     
  0.709230885740214       0.698305862514087       0.687380839287957     
  0.676455816061826       0.665530792835699       0.820248413329022     
  0.809323390102894       0.798398366876763       0.787473343650634     
  0.776548320424506       0.765623297198378       0.754698273972247     
  0.743773250746119       0.732848227519991       0.721923204293861     
  0.710998181067733       0.863101052255263       0.852176029029135     
  0.841251005803006       0.830325982576877       0.819400959350748     
  0.808475936124619       0.797550912898490       0.786625889672360     
  0.775700866446230       0.764775843220104       0.753850819993974     
  0.902663130160920       0.891738106934791       0.880813083708663     
  0.869888060482534       0.858963037256405       0.848038014030275     
  0.837112990804147       0.826187967578018       0.815262944351888     
  0.804337921125759       0.793412897899630       0.938310729444180     
  0.927385706218053       0.916460682991921       0.905535659765795     
  0.894610636539666       0.883685613313536       0.872760590087407     
  0.861835566861278       0.850910543635148       0.839985520409020     
  0.829060497182891       0.969481666169501       0.958556642943373     
  0.947631619717247       0.936706596491115       0.925781573264986     
  0.914856550038858       0.903931526812730       0.893006503586602     
  0.882081480360471       0.871156457134341       0.860231433908213     
  0.995684356044115       0.984759332817987       0.973834309591856     
  0.962909286365728       0.951984263139598       0.941059239913471     
  0.930134216687340       0.919209193461210       0.908284170235085     
  0.897359147008956       0.886434123782826        1.01650556699597     
   1.00558054376984       0.994655520543708       0.983730497317577     
  0.972805474091449       0.961880450865322       0.950955427639192     
  0.940030404413063       0.929105381186933       0.918180357960806     
  0.907255334734675        1.03161693609036        1.02069191286423     
   1.00976688963810       0.998841866411968       0.987916843185840     
  0.976991819959713       0.966066796733583       0.955141773507453     
  0.944216750281325       0.933291727055194       0.922366703829064     
   1.04078014800957        1.02985512478344        1.01893010155731     
   1.00800507833118       0.997080055105055       0.986155031878924     
  0.975230008652797       0.964304985426668       0.953379962200538     
  0.942454938974410       0.931529915748281        1.04385069342781     
   1.03292567020168        1.02200064697555        1.01107562374942     
   1.00015060052329       0.989225577297167       0.978300554071036     
  0.967375530844908       0.956450507618780       0.945525484392648     
  0.934600461166522     
  1.660316899342888E-002  1.494285209408599E-002  1.328253519474311E-002
  1.162221829540022E-002  9.961901396057328E-003  8.301584496714441E-003
  6.641267597371552E-003  4.980950698028665E-003  3.320633798685776E-003
  1.660316899342887E-003  0.000000000000000E+000  1.660316899342888E-002
  1.494285209408599E-002  1.328253519474311E-002  1.162221829540022E-002
  9.961901396057328E-003  8.301584496714441E-003  6.641267597371552E-003
  4.980950698028665E-003  3.320633798685776E-003  1.660316899342887E-003
  0.000000000000000E+000  1.660316899342888E-002  1.494285209408599E-002
  1.328253519474311E-002  1.162221829540022E-002  9.961901396057328E-003
  8.301584496714441E-003  6.641267597371552E-003  4.980950698028665E-003
  3.320633798685776E-003  1.660316899342887E-003  0.000000000000000E+000
  1.660316899342888E-002  1.494285209408599E-002  1.328253519474311E-002
  1.162221829540022E-002  9.961901396057328E-003  8.301584496714441E-003
  6.641267597371552E-003  4.980950698028665E-003  3.320633798685776E-003
  1.660316899342887E-003  0.000000000000000E+000  1.660316899342888E-002
  1.494285209408599E-002  1.328253519474311E-002  1.162221829540022E-002
  9.961901396057328E-003  8.301584496714441E-003  6.641267597371552E-003
  4.980950698028665E-003  3.320633798685776E-003  1.660316899342887E-003
  0.000000000000000E+000  1.660316899342888E-002  1.494285209408599E-002
  1.328253519474311E-002  1.162221829540022E-002  9.961901396057328E-003
  8.301584496714441E-003  6.641267597371552E-003  4.980950698028665E-003
  3.320633798685776E-003  1.660316899342887E-003  0.000000000000000E+000
  1.660316899342888E-002  1.494285209408599E-002  1.328253519474311E-002
  1.162221829540022E-002  9.961901396057328E-003  8.301584496714441E-003
  6.641267597371552E-003  4.980950698028665E-003  3.320633798685776E-003
  1.660316899342887E-003  0.000000000000000E+000  1.660316899342888E-002
  1.494285209408599E-002  1.328253519474311E-002  1.162221829540022E-002
  9.961901396057328E-003  8.301584496714441E-003  6.641267597371552E-003
  4.980950698028665E-003  3.320633798685776E-003  1.660316899342887E-003
  0.000000000000000E+000  1.660316899342888E-002  1.494285209408599E-002
  1.328253519474311E-002  1.162221829540022E-002  9.961901396057328E-003
  8.301584496714441E-003  6.641267597371552E-003  4.980950698028665E-003
  3.320633798685776E-003  1.660316899342887E-003  0.000000000000000E+000
  1.660316899342888E-002  1.494285209408599E-002  1.328253519474311E-002
  1.162221829540022E-002  9.961901396057328E-003  8.301584496714441E-003
  6.641267597371552E-003  4.980950698028665E-003  3.320633798685776E-003
  1.660316899342887E-003  0.000000000000000E+000  1.660316899342888E-002
  1.494285209408599E-002  1.328253519474311E-002  1.162221829540022E-002
  9.961901396057328E-003  8.301584496714441E-003  6.641267597371552E-003
  4.980950698028665E-003  3.320633798685776E-003  1.660316899342887E-003
  0.000000000000000E+000  1.660316899342888E-002  1.494285209408599E-002
  1.328253519474311E-002  1.162221829540022E-002  9.961901396057328E-003
  8.301584496714441E-003  6.641267597371552E-003  4.980950698028665E-003
  3.320633798685776E-003  1.660316899342887E-003  0.000000000000000E+000
  1.660316899342888E-002  1.494285209408599E-002  1.328253519474311E-002
  1.162221829540022E-002  9.961901396057328E-003  8.301584496714441E-003
  6.641267597371552E-003  4.980950698028665E-003  3.320633798685776E-003
  1.660316899342887E-003  0.000000000000000E+000  1.660316899342888E-002
  1.494285209408599E-002  1.328253519474311E-002  1.162221829540022E-002
  9.961901396057328E-003  8.301584496714441E-003  6.641267597371552E-003
  4.980950698028665E-003  3.320633798685776E-003  1.660316899342887E-003
  0.000000000000000E+000  1.660316899342888E-002  1.494285209408599E-002
  1.328253519474311E-002  1.162221829540022E-002  9.961901396057328E-003
  8.301584496714441E-003  6.641267597371552E-003  4.980950698028665E-003
  3.320633798685776E-003  1.660316899342887E-003  0.000000000000000E+000
  1.660316899342888E-002  1.494285209408599E-002  1.328253519474311E-002
  1.162221829540022E-002  9.961901396057328E-003  8.301584496714441E-003
  6.641267597371552E-003  4.980950698028665E-003  3.320633798685776E-003
  1.660316899342887E-003  0.000000000000000E+000  1.660316899342888E-002
  1.494285209408599E-002  1.328253519474311E-002  1.162221829540022E-002
  9.961901396057328E-003  8.301584496714441E-003  6.641267597371552E-003
  4.980950698028665E-003  3.320633798685776E-003  1.660316899342887E-003
  0.000000000000000E+000  1.660316899342888E-002  1.494285209408599E-002
  1.328253519474311E-002  1.162221829540022E-002  9.961901396057328E-003
  8.301584496714441E-003  6.641267597371552E-003  4.980950698028665E-003
  3.320633798685776E-003  1.660316899342887E-003  0.000000000000000E+000
  1.660316899342888E-002  1.494285209408599E-002  1.328253519474311E-002
  1.162221829540022E-002  9.961901396057328E-003  8.301584496714441E-003
  6.641267597371552E-003  4.980950698028665E-003  3.320633798685776E-003
  1.660316899342887E-003  0.000000000000000E+000  1.660316899342888E-002
  1.494285209408599E-002  1.328253519474311E-002  1.162221829540022E-002
  9.961901396057328E-003  8.301584496714441E-003  6.641267597371552E-003
  4.980950698028665E-003  3.320633798685776E-003  1.660316899342887E-003
  0.000000000000000E+000  1.660316899342888E-002  1.494285209408599E-002
  1.328253519474311E-002  1.162221829540022E-002  9.961901396057328E-003
  8.301584496714441E-003  6.641267597371552E-003  4.980950698028665E-003
  3.320633798685776E-003  1.660316899342887E-003  0.000000000000000E+000
  1.660316899342888E-002  1.494285209408599E-002  1.328253519474311E-002
  1.162221829540022E-002  9.961901396057328E-003  8.301584496714441E-003
  6.641267597371552E-003  4.980950698028665E-003  3.320633798685776E-003
  1.660316899342887E-003  0.000000000000000E+000  1.660316899342888E-002
  1.494285209408599E-002  1.328253519474311E-002  1.162221829540022E-002
  9.961901396057328E-003  8.301584496714441E-003  6.641267597371552E-003
  4.980950698028665E-003  3.320633798685776E-003  1.660316899342887E-003
  0.000000000000000E+000  1.660316899342888E-002  1.494285209408599E-002
  1.328253519474311E-002  1.162221829540022E-002  9.961901396057328E-003
  8.301584496714441E-003  6.641267597371552E-003  4.980950698028665E-003
  3.320633798685776E-003  1.660316899342887E-003  0.000000000000000E+000
  1.660316899342888E-002  1.494285209408599E-002  1.328253519474311E-002
  1.162221829540022E-002  9.961901396057328E-003  8.301584496714441E-003
  6.641267597371552E-003  4.980950698028665E-003  3.320633798685776E-003
  1.660316899342887E-003  0.000000000000000E+000  1.660316899342888E-002
  1.494285209408599E-002  1.328253519474311E-002  1.162221829540022E-002
  9.961901396057328E-003  8.301584496714441E-003  6.641267597371552E-003
  4.980950698028665E-003  3.320633798685776E-003  1.660316899342887E-003
  0.000000000000000E+000
  6.259986124844670E-002  8.533885549541549E-002  0.101918262779089     
  0.114329576603528       0.122036311116288       0.124796855509488     
  0.123676583816143       0.119742217945475       0.114055277832448     
  0.107642867747853       9.771622669461687E-002  0.135992354299302     
  0.163319345262941       0.183785230272571       0.196981521724371     
  0.202304632725272       0.201384268426940       0.195942432262007     
  0.187511307200915       0.178083258875037       0.109873355342958     
  0.159717315318005       0.195054203620087       0.221870644881164     
  0.240462136594158       0.249945653119631       0.251798100389287     
  0.248093450132654       0.240135223058871       0.229860675506488     
  9.890302951983038E-002  0.151541149835116       0.190784862231235     
  0.221862196024081       0.245105661566908       0.259561936730412     
  0.266292506020670       0.267088853121286       0.262709521698185     
  0.254296531941778       7.900090460519794E-002  0.128140024872328     
  0.168157446067988       0.201760884252722       0.228609405035238     
  0.247570067089280       0.259251492362911       0.264970234921787     
  0.265233558889583       0.260520313919450       6.796220371062255E-002
  0.113222727322654       0.152111036396641       0.185901250916562     
  0.214059611235005       0.235928188968922       0.251659270679101     
  0.261897291575087       0.266951095818463       0.266779111000802     
  7.474279559018993E-002  0.120581518207183       0.159061379027086     
  0.192503900602971       0.221136242328984       0.244891242201320     
  0.263827217108644       0.278020074659941       0.287360365104784     
  0.291410259992447       9.691619800381715E-002  0.150287766403837     
  0.192558295211406       0.228344130909697       0.259012321200773     
  0.285087092865728       0.306778395262996       0.324079544168068     
  0.336736367685328       0.343983057420035       0.129674078723524     
  0.196502870487061       0.247079560415301       0.288704153218935     
  0.323878485531850       0.353706734742922       0.378698831312169     
  0.399000738715886       0.414389346592984       0.423949641181242     
  0.169782404572907       0.254217984462931       0.316382610709737     
  0.366522073590729       0.408307835777298       0.443418663710751     
  0.472673586345597       0.496407550589902       0.514503735046341     
  0.525997177601928       0.215271460381050       0.320219073861364     
  0.396210015633771       0.456661465578628       0.506472369746804     
  0.547945138493216       0.582259061168410       0.609955089151527     
  0.631007863148203       0.644399793787992       0.264859150841420     
  0.392373108051113       0.483692493398197       0.555631440090522     
  0.614391529508654       0.662941889062806       0.702852177751623     
  0.734894532227133       0.759148995032238       0.774537788718657     
  0.317456415323560       0.468969180683550       0.576614763788541     
  0.660798761281300       0.729103090586232       0.785196059708384     
  0.831051773663874       0.867684157079219       0.895297075840914     
  0.912769192078842       0.372149450220439       0.548617043125766     
  0.673228109579877       0.770117030721426       0.848304135226792     
  0.912191421102374       0.964175130358631        1.00552112259894     
   1.03656324458501        1.05615301748290       0.428446927349457     
  0.630548425585214       0.772534747116972       0.882381398431369     
  0.970590972338569        1.04233174258184        1.10044983990160     
   1.14648308442740        1.18091456935172        1.20259041761633     
  0.486493009192247       0.714955948543354       0.874718157520344     
  0.997709291201570        1.09596361360736        1.17545200137049     
   1.23951747725977        1.29001947142035        1.32763512155927     
   1.35125660940017       0.547884789257388       0.804223955115186     
  0.982591145839145        1.11906757747917        1.22734157070639     
   1.31428918943205        1.38384220545795        1.43828457231366     
   1.47859445069834        1.50381726493629       0.622827905162999     
  0.911861437958657        1.11088037979824        1.26143579396435     
   1.37952573905095        1.47329203731633        1.54746928188518     
   1.60491354695820        1.64704730223012        1.67324851025126     
  0.753974860639649        1.08820317519330        1.31098684480905     
   1.47632830159567        1.60424464341934        1.70457423749630     
   1.78309600626740        1.84340374535041        1.88744637320089     
   1.91491715549829       0.945833622204507        1.33942039041017     
   1.58904780949040        1.76809636331852        1.90277471916619     
   2.00621623855762        2.08602132445595        2.14679493680094     
   2.19109971874987        2.21907993376783        1.04159516305457     
   1.46315082023737        1.72118387506751        1.89924868705483     
   2.02934183131273        2.12700439485157        2.20088130725711     
   2.25603600452217        2.29526590580596        2.31928161552153     
   1.01078074454946        1.40522427128210        1.63860452635356     
   1.79504753871005        1.90683870739918        1.98941954774353     
   2.05103488751049        2.09626069643005        2.12742704462798     
   2.14514350874071       0.886785823452000        1.20707940252279     
   1.38957626159829        1.51002657556036        1.59549995366433     
   1.65841467044829        1.70524226920785        1.73953073309271     
   1.76313123853896        1.77665952542503       0.682202213227772     
  0.899753682820607        1.02207419562564        1.10302025048521     
   1.16067766764146        1.20327378167034        1.23512657376576     
   1.25868327176312        1.27554147539653        1.28796784185080     
  0.415502090036227       0.537390903812529       0.606599687731683     
  0.652674603894627       0.685617563276201       0.710017930978497     
  0.728295822363335       0.741800419660390       0.751277994052805     
  0.756994204529490     
  0.000000000000000E+000  0.000000000000000E+000  0.000000000000000E+000
  0.000000000000000E+000  0.000000000000000E+000  0.000000000000000E+000
  0.000000000000000E+000  0.000000000000000E+000  0.000000000000000E+000
  0.000000000000000E+000  0.000000000000000E+000  0.000000000000000E+000
  0.000000000000000E+000  0.000000000000000E+000  0.000000000000000E+000
  0.000000000000000E+000  0.000000000000000E+000  0.000000000000000E+000
  0.000000000000000E+000  0.000000000000000E+000  0.000000000000000E+000
  0.000000000000000E+000  0.000000000000000E+000  0.000000000000000E+000
  0.000000000000000E+000  0.000000000000000E+000  0.000000000000000E+000
  0.000000000000000E+000  0.000000000000000E+000  0.000000000000000E+000
  0.000000000000000E+000  0.000000000000000E+000  0.000000000000000E+000
  0.000000000000000E+000  0.000000000000000E+000  0.000000000000000E+000
  0.000000000000000E+000  0.000000000000000E+000  0.000000000000000E+000
  0.000000000000000E+000  0.000000000000000E+000  0.000000000000000E+000
  0.000000000000000E+000  0.000000000000000E+000  0.000000000000000E+000
  0.000000000000000E+000  0.000000000000000E+000  0.000000000000000E+000
  0.000000000000000E+000  0.000000000000000E+000  0.000000000000000E+000
  0.000000000000000E+000  0.000000000000000E+000  0.000000000000000E+000
  0.000000000000000E+000  0.000000000000000E+000  0.000000000000000E+000
  0.000000000000000E+000  0.000000000000000E+000  0.000000000000000E+000
  0.000000000000000E+000  0.000000000000000E+000  0.000000000000000E+000
  0.000000000000000E+000  0.000000000000000E+000  0.000000000000000E+000
  0.000000000000000E+000  0.000000000000000E+000  0.000000000000000E+000
  0.000000000000000E+000  0.000000000000000E+000  0.000000000000000E+000
  0.000000000000000E+000  0.000000000000000E+000  0.000000000000000E+000
  0.000000000000000E+000  0.000000000000000E+000  0.000000000000000E+000
  0.000000000000000E+000  0.000000000000000E+000  0.000000000000000E+000
  0.000000000000000E+000  0.000000000000000E+000  0.000000000000000E+000
  0.000000000000000E+000  0.000000000000000E+000  0.000000000000000E+000
  0.000000000000000E+000  0.000000000000000E+000  0.000000000000000E+000
  0.000000000000000E+000  0.000000000000000E+000  0.000000000000000E+000
  0.000000000000000E+000  0.000000000000000E+000  0.000000000000000E+000
  0.000000000000000E+000  0.000000000000000E+000  0.000000000000000E+000
  0.000000000000000E+000  0.000000000000000E+000  0.000000000000000E+000
  0.000000000000000E+000  0.000000000000000E+000  0.000000000000000E+000
  0.000000000000000E+000  0.000000000000000E+000  0.000000000000000E+000
  0.000000000000000E+000  0.000000000000000E+000  0.000000000000000E+000
  0.000000000000000E+000  0.000000000000000E+000  0.000000000000000E+000
  0.000000000000000E+000  0.000000000000000E+000  0.000000000000000E+000