 Title = "Wing and Wake"
 VARIABLES = "X" "Y" "Z" "GAM" "skew"
 Zone I=   11 J=   26 K=1  T="Blade"
 DATAPACKING=BLOCK
 VARLOCATION=([4]=CELLCENTERED,[5]=CELLCENTERED)
  7.964779607571497E-002  6.283863299442456E-002  4.602946991313373E-002
  2.922030683184310E-002  1.241114375055240E-002 -4.398019330738414E-003
 -2.120718241202896E-002 -3.801634549331970E-002 -5.482550857461031E-002
 -7.163467165590101E-002 -8.844383473719172E-002  7.790469930118604E-002
  6.109553621989514E-002  4.428637313860470E-002  2.747721005731403E-002
  1.066804697602319E-002 -6.141116105267349E-003 -2.295027918655808E-002
 -3.975944226784866E-002 -5.656860534913958E-002 -7.337776843043009E-002
 -9.018693151172079E-002  7.270289865500892E-002  5.589373557371840E-002
  3.908457249242770E-002  2.227540941113684E-002  5.466246329846202E-003
 -1.134291675144438E-002 -2.815207983273511E-002 -4.496124291402566E-002
 -6.177040599531658E-002 -7.857956907660708E-002 -9.538873215789787E-002
  6.412442964077873E-002  4.731526655948831E-002  3.050610347819740E-002
  1.369694039690677E-002 -3.112222684383694E-003 -1.992138576567451E-002
 -3.673054884696528E-002 -5.353971192825589E-002 -7.034887500954655E-002
 -8.715803809083719E-002 -0.103967201172128       5.230457983937940E-002
  3.549541675808868E-002  1.868625367679802E-002  1.877090595507350E-003
 -1.493207248578333E-002 -3.174123556707409E-002 -4.855039864836459E-002
 -6.535956172965537E-002 -8.216872481094610E-002 -9.897788789223681E-002
 -0.115787050973527       3.742975534301452E-002  2.062059226172391E-002
  3.811429180433095E-003 -1.299773390085737E-002 -2.980689698214824E-002
 -4.661606006343887E-002 -6.342522314472945E-002 -8.023438622602003E-002
 -9.704354930731093E-002 -0.113852712388601      -0.130661875469892     
  1.973454101978154E-002  2.925377938490898E-003 -1.388378514279985E-002
 -3.069294822409056E-002 -4.750211130538124E-002 -6.431127438667204E-002
 -8.112043746796233E-002 -9.792960054925344E-002 -0.114738763630544     
 -0.131547926711835      -0.148357089793125      -5.019990298338874E-004
 -1.731116211112450E-002 -3.412032519241506E-002 -5.092948827370580E-002
 -6.773865135499638E-002 -8.454781443628735E-002 -0.101356977517578     
 -0.118166140598869      -0.134975303680159      -0.151784466761450     
 -0.168593629842741      -2.296072248052610E-002 -3.976988556181663E-002
 -5.657904864310724E-002 -7.338821172439794E-002 -9.019737480568846E-002
 -0.107006537886979      -0.123815700968270      -0.140624864049560     
 -0.157434027130851      -0.174243190212142      -0.191052353293432     
 -4.728744184728634E-002 -6.409660492857673E-002 -8.090576800986754E-002
 -9.771493109115797E-002 -0.114524094172449      -0.131333257253739     
 -0.148142420335030      -0.164951583416321      -0.181760746497612     
 -0.198569909578902      -0.215379072660193      -7.309851023362267E-002
 -8.990767331491352E-002 -0.106716836396204      -0.123525999477495     
 -0.140335162558786      -0.157144325640076      -0.173953488721367     
 -0.190762651802658      -0.207571814883948      -0.224380977965239     
 -0.241190141046529      -9.998687167229862E-002 -0.116796034753590     
 -0.133605197834880      -0.150414360916171      -0.167223523997462     
 -0.184032687078753      -0.200841850160043      -0.217651013241334     
 -0.234460176322625      -0.251269339403915      -0.268078502485206     
 -0.127528480641098      -0.144337643722389      -0.161146806803679     
 -0.177955969884970      -0.194765132966261      -0.211574296047551     
 -0.228383459128842      -0.245192622210133      -0.262001785291423     
 -0.278810948372714      -0.295620111454005      -0.155288989514022     
 -0.172098152595313      -0.188907315676604      -0.205716478757894     
 -0.222525641839184      -0.239334804920475      -0.256143968001766     
 -0.272953131083057      -0.289762294164347      -0.306571457245638     
 -0.323380620326928      -0.182830598482820      -0.199639761564111     
 -0.216448924645402      -0.233258087726693      -0.250067250807983     
 -0.266876413889274      -0.283685576970565      -0.300494740051855     
 -0.317303903133146      -0.334113066214437      -0.350922229295728     
 -0.209718959921497      -0.226528123002788      -0.243337286084078     
 -0.260146449165369      -0.276955612246660      -0.293764775327950     
 -0.310573938409241      -0.327383101490532      -0.344192264571822     
 -0.361001427653113      -0.377810590734404      -0.235530028307834     
 -0.252339191389124      -0.269148354470415      -0.285957517551705     
 -0.302766680632996      -0.319575843714287      -0.336385006795578     
 -0.353194169876869      -0.370003332958159      -0.386812496039450     
 -0.403621659120741      -0.259856747674594      -0.276665910755884     
 -0.293475073837175      -0.310284236918466      -0.327093399999756     
 -0.343902563081047      -0.360711726162337      -0.377520889243628     
 -0.394330052324919      -0.411139215406210      -0.427948378487500     
 -0.282315471125286      -0.299124634206576      -0.315933797287867     
 -0.332742960369158      -0.349552123450448      -0.366361286531739     
 -0.383170449613030      -0.399979612694321      -0.416788775775612     
 -0.433597938856902      -0.450407101938193      -0.302552011174901     
 -0.319361174256192      -0.336170337337483      -0.352979500418773     
 -0.369788663500063      -0.386597826581354      -0.403406989662645     
 -0.420216152743936      -0.437025315825227      -0.453834478906517     
 -0.470643641987808      -0.320247225498134      -0.337056388579425     
 -0.353865551660715      -0.370674714742006      -0.387483877823296     
 -0.404293040904587      -0.421102203985878      -0.437911367067168     
 -0.454720530148459      -0.471529693229750      -0.488338856311041     
 -0.335122049994498      -0.351931213075790      -0.368740376157081     
 -0.385549539238371      -0.402358702319661      -0.419167865400952     
 -0.435977028482243      -0.452786191563534      -0.469595354644824     
 -0.486404517726115      -0.503213680807406      -0.346941899795898     
 -0.363751062877189      -0.380560225958480      -0.397369389039771     
 -0.414178552121062      -0.430987715202351      -0.447796878283642     
 -0.464606041364933      -0.481415204446223      -0.498224367527515     
 -0.515033530608805      -0.355520368810128      -0.372329531891420     
 -0.389138694972710      -0.405947858054002      -0.422757021135291     
 -0.439566184216583      -0.456375347297873      -0.473184510379164     
 -0.489993673460454      -0.506802836541746      -0.523611999623035     
 -0.360722169456306      -0.377531332537596      -0.394340495618887     
 -0.411149658700177      -0.427958821781468      -0.444767984862760     
 -0.461577147944049      -0.478386311025340      -0.495195474106631     
 -0.512004637187921      -0.528813800269212      -0.362465266230835     
 -0.379274429312125      -0.396083592393416      -0.412892755474707     
 -0.429701918555997      -0.446511081637288      -0.463320244718578     
 -0.480129407799870      -0.496938570881160      -0.513747733962450     
 -0.530556897043742     
 -0.256857121589546      -0.248048155458363      -0.239239189327180     
 -0.230430223195997      -0.221621257064814      -0.212812290933631     
 -0.204003324802448      -0.195194358671265      -0.186385392540082     
 -0.177576426408898      -0.168767460277715      -0.260183277861825     
 -0.251374311730642      -0.242565345599459      -0.233756379468276     
 -0.224947413337093      -0.216138447205910      -0.207329481074727     
 -0.198520514943544      -0.189711548812361      -0.180902582681178     
 -0.172093616549995      -0.270109291207299      -0.261300325076117     
 -0.252491358944934      -0.243682392813750      -0.234873426682567     
 -0.226064460551384      -0.217255494420201      -0.208446528289018     
 -0.199637562157835      -0.190828596026652      -0.182019629895469     
 -0.286478622465998      -0.277669656334815      -0.268860690203632     
 -0.260051724072449      -0.251242757941266      -0.242433791810083     
 -0.233624825678900      -0.224815859547717      -0.216006893416534     
 -0.207197927285351      -0.198388961154168      -0.309033117505407     
 -0.300224151374224      -0.291415185243040      -0.282606219111857     
 -0.273797252980674      -0.264988286849491      -0.256179320718308     
 -0.247370354587125      -0.238561388455942      -0.229752422324759     
 -0.220943456193576      -0.337417078465351      -0.328608112334168     
 -0.319799146202985      -0.310990180071802      -0.302181213940619     
 -0.293372247809436      -0.284563281678253      -0.275754315547070     
 -0.266945349415887      -0.258136383284704      -0.249327417153520     
 -0.371182873325737      -0.362373907194554      -0.353564941063371     
 -0.344755974932188      -0.335947008801005      -0.327138042669822     
 -0.318329076538639      -0.309520110407456      -0.300711144276272     
 -0.291902178145089      -0.283093212013906      -0.409797995330908     
 -0.400989029199725      -0.392180063068542      -0.383371096937359     
 -0.374562130806176      -0.365753164674993      -0.356944198543810     
 -0.348135232412627      -0.339326266281444      -0.330517300150261     
 -0.321708334019078      -0.452653460939287      -0.443844494808104     
 -0.435035528676921      -0.426226562545738      -0.417417596414555     
 -0.408608630283372      -0.399799664152189      -0.390990698021006     
 -0.382181731889823      -0.373372765758640      -0.364563799627456     
 -0.499073413857615      -0.490264447726432      -0.481455481595249     
 -0.472646515464066      -0.463837549332883      -0.455028583201700     
 -0.446219617070517      -0.437410650939334      -0.428601684808151     
 -0.419792718676968      -0.410983752545785      -0.548325783698435     
 -0.539516817567252      -0.530707851436069      -0.521898885304885     
 -0.513089919173703      -0.504280953042520      -0.495471986911337     
 -0.486663020780153      -0.477854054648971      -0.469045088517787     
 -0.460236122386604      -0.599633831167417      -0.590824865036234     
 -0.582015898905050      -0.573206932773867      -0.564397966642685     
 -0.555589000511502      -0.546780034380318      -0.537971068249136     
 -0.529162102117952      -0.520353135986769      -0.511544169855587     
 -0.652188397706033      -0.643379431574850      -0.634570465443667     
 -0.625761499312484      -0.616952533181301      -0.608143567050118     
 -0.599334600918935      -0.590525634787752      -0.581716668656569     
 -0.572907702525386      -0.564098736394203      -0.705160666405394     
 -0.696351700274211      -0.687542734143028      -0.678733768011845     
 -0.669924801880661      -0.661115835749478      -0.652306869618295     
 -0.643497903487113      -0.634688937355930      -0.625879971224746     
 -0.617071005093563      -0.757715232944011      -0.748906266812827     
 -0.740097300681644      -0.731288334550461      -0.722479368419278     
 -0.713670402288095      -0.704861436156912      -0.696052470025729     
 -0.687243503894546      -0.678434537763363      -0.669625571632180     
 -0.809023280412992      -0.800214314281809      -0.791405348150626     
 -0.782596382019443      -0.773787415888260      -0.764978449757076     
 -0.756169483625894      -0.747360517494711      -0.738551551363528     
 -0.729742585232344      -0.720933619101162      -0.858275650253812     
 -0.849466684122629      -0.840657717991446      -0.831848751860262     
 -0.823039785729080      -0.814230819597896      -0.805421853466714     
 -0.796612887335530      -0.787803921204348      -0.778994955073164     
 -0.770185988941982      -0.904695603172140      -0.895886637040957     
 -0.887077670909775      -0.878268704778591      -0.869459738647407     
 -0.860650772516224      -0.851841806385041      -0.843032840253858     
 -0.834223874122675      -0.825414907991492      -0.816605941860309     
 -0.947551068780519      -0.938742102649335      -0.929933136518152     
 -0.921124170386970      -0.912315204255786      -0.903506238124603     
 -0.894697271993420      -0.885888305862237      -0.877079339731054     
 -0.868270373599871      -0.859461407468688      -0.986166190785690     
 -0.977357224654507      -0.968548258523324      -0.959739292392141     
 -0.950930326260958      -0.942121360129774      -0.933312393998592     
 -0.924503427867408      -0.915694461736225      -0.906885495605042     
 -0.898076529473859       -1.01993198564608       -1.01112301951489     
  -1.00231405338371      -0.993505087252526      -0.984696121121343     
 -0.975887154990160      -0.967078188858977      -0.958269222727794     
 -0.949460256596611      -0.940651290465427      -0.931842324334245     
  -1.04831594660602       -1.03950698047484       -1.03069801434365     
  -1.02188904821247       -1.01308008208129       -1.00427111595010     
 -0.995462149818922      -0.986653183687738      -0.977844217556556     
 -0.969035251425374      -0.960226285294190       -1.07087044164543     
  -1.06206147551425       -1.05325250938306       -1.04444354325188     
  -1.03563457712070       -1.02682561098951       -1.01801664485833     
  -1.00920767872715       -1.00039871259596      -0.991589746464782     
 -0.982780780333598       -1.08723977290413       -1.07843080677294     
  -1.06962184064176       -1.06081287451058       -1.05200390837940     
  -1.04319494224821       -1.03438597611703       -1.02557700998585     
  -1.01676804385466       -1.00795907772348      -0.999150111592296     
  -1.09716578624960       -1.08835682011842       -1.07954785398723     
  -1.07073888785605       -1.06192992172487       -1.05312095559369     
  -1.04431198946250       -1.03550302333132       -1.02669405720014     
  -1.01788509106895       -1.00907612493777       -1.10049194252188     
  -1.09168297639070       -1.08287401025951       -1.07406504412833     
  -1.06525607799715       -1.05644711186597       -1.04763814573478     
  -1.03882917960360       -1.03002021347242       -1.02121124734123     
  -1.01240228121005     
  1.660316899342888E-002  1.494285209408599E-002  1.328253519474311E-002
  1.162221829540022E-002  9.961901396057328E-003  8.301584496714441E-003
  6.641267597371552E-003  4.980950698028665E-003  3.320633798685776E-003
  1.660316899342887E-003  0.000000000000000E+000  1.660316899342888E-002
  1.494285209408599E-002  1.328253519474311E-002  1.162221829540022E-002
  9.961901396057328E-003  8.301584496714441E-003  6.641267597371552E-003
  4.980950698028665E-003  3.320633798685776E-003  1.660316899342887E-003
  0.000000000000000E+000  1.660316899342888E-002  1.494285209408599E-002
  1.328253519474311E-002  1.162221829540022E-002  9.961901396057328E-003
  8.301584496714441E-003  6.641267597371552E-003  4.980950698028665E-003
  3.320633798685776E-003  1.660316899342887E-003  0.000000000000000E+000
  1.660316899342888E-002  1.494285209408599E-002  1.328253519474311E-002
  1.162221829540022E-002  9.961901396057328E-003  8.301584496714441E-003
  6.641267597371552E-003  4.980950698028665E-003  3.320633798685776E-003
  1.660316899342887E-003  0.000000000000000E+000  1.660316899342888E-002
  1.494285209408599E-002  1.328253519474311E-002  1.162221829540022E-002
  9.961901396057328E-003  8.301584496714441E-003  6.641267597371552E-003
  4.980950698028665E-003  3.320633798685776E-003  1.660316899342887E-003
  0.000000000000000E+000  1.660316899342888E-002  1.494285209408599E-002
  1.328253519474311E-002  1.162221829540022E-002  9.961901396057328E-003
  8.301584496714441E-003  6.641267597371552E-003  4.980950698028665E-003
  3.320633798685776E-003  1.660316899342887E-003  0.000000000000000E+000
  1.660316899342888E-002  1.494285209408599E-002  1.328253519474311E-002
  1.162221829540022E-002  9.961901396057328E-003  8.301584496714441E-003
  6.641267597371552E-003  4.980950698028665E-003  3.320633798685776E-003
  1.660316899342887E-003  0.000000000000000E+000  1.660316899342888E-002
  1.494285209408599E-002  1.328253519474311E-002  1.162221829540022E-002
  9.961901396057328E-003  8.301584496714441E-003  6.641267597371552E-003
  4.980950698028665E-003  3.320633798685776E-003  1.660316899342887E-003
  0.000000000000000E+000  1.660316899342888E-002  1.494285209408599E-002
  1.328253519474311E-002  1.162221829540022E-002  9.961901396057328E-003
  8.301584496714441E-003  6.641267597371552E-003  4.980950698028665E-003
  3.320633798685776E-003  1.660316899342887E-003  0.000000000000000E+000
  1.660316899342888E-002  1.494285209408599E-002  1.328253519474311E-002
  1.162221829540022E-002  9.961901396057328E-003  8.301584496714441E-003
  6.641267597371552E-003  4.980950698028665E-003  3.320633798685776E-003
  1.660316899342887E-003  0.000000000000000E+000  1.660316899342888E-002
  1.494285209408599E-002  1.328253519474311E-002  1.162221829540022E-002
  9.961901396057328E-003  8.301584496714441E-003  6.641267597371552E-003
  4.980950698028665E-003  3.320633798685776E-003  1.660316899342887E-003
  0.000000000000000E+000  1.660316899342888E-002  1.494285209408599E-002
  1.328253519474311E-002  1.162221829540022E-002  9.961901396057328E-003
  8.301584496714441E-003  6.641267597371552E-003  4.980950698028665E-003
  3.320633798685776E-003  1.660316899342887E-003  0.000000000000000E+000
  1.660316899342888E-002  1.494285209408599E-002  1.328253519474311E-002
  1.162221829540022E-002  9.961901396057328E-003  8.301584496714441E-003
  6.641267597371552E-003  4.980950698028665E-003  3.320633798685776E-003
  1.660316899342887E-003  0.000000000000000E+000  1.660316899342888E-002
  1.494285209408599E-002  1.328253519474311E-002  1.162221829540022E-002
  9.961901396057328E-003  8.301584496714441E-003  6.641267597371552E-003
  4.980950698028665E-003  3.320633798685776E-003  1.660316899342887E-003
  0.000000000000000E+000  1.660316899342888E-002  1.494285209408599E-002
  1.328253519474311E-002  1.162221829540022E-002  9.961901396057328E-003
  8.301584496714441E-003  6.641267597371552E-003  4.980950698028665E-003
  3.320633798685776E-003  1.660316899342887E-003  0.000000000000000E+000
  1.660316899342888E-002  1.494285209408599E-002  1.328253519474311E-002
  1.162221829540022E-002  9.961901396057328E-003  8.301584496714441E-003
  6.641267597371552E-003  4.980950698028665E-003  3.320633798685776E-003
  1.660316899342887E-003  0.000000000000000E+000  1.660316899342888E-002
  1.494285209408599E-002  1.328253519474311E-002  1.162221829540022E-002
  9.961901396057328E-003  8.301584496714441E-003  6.641267597371552E-003
  4.980950698028665E-003  3.320633798685776E-003  1.660316899342887E-003
  0.000000000000000E+000  1.660316899342888E-002  1.494285209408599E-002
  1.328253519474311E-002  1.162221829540022E-002  9.961901396057328E-003
  8.301584496714441E-003  6.641267597371552E-003  4.980950698028665E-003
  3.320633798685776E-003  1.660316899342887E-003  0.000000000000000E+000
  1.660316899342888E-002  1.494285209408599E-002  1.328253519474311E-002
  1.162221829540022E-002  9.961901396057328E-003  8.301584496714441E-003
  6.641267597371552E-003  4.980950698028665E-003  3.320633798685776E-003
  1.660316899342887E-003  0.000000000000000E+000  1.660316899342888E-002
  1.494285209408599E-002  1.328253519474311E-002  1.162221829540022E-002
  9.961901396057328E-003  8.301584496714441E-003  6.641267597371552E-003
  4.980950698028665E-003  3.320633798685776E-003  1.660316899342887E-003
  0.000000000000000E+000  1.660316899342888E-002  1.494285209408599E-002
  1.328253519474311E-002  1.162221829540022E-002  9.961901396057328E-003
  8.301584496714441E-003  6.641267597371552E-003  4.980950698028665E-003
  3.320633798685776E-003  1.660316899342887E-003  0.000000000000000E+000
  1.660316899342888E-002  1.494285209408599E-002  1.328253519474311E-002
  1.162221829540022E-002  9.961901396057328E-003  8.301584496714441E-003
  6.641267597371552E-003  4.980950698028665E-003  3.320633798685776E-003
  1.660316899342887E-003  0.000000000000000E+000  1.660316899342888E-002
  1.494285209408599E-002  1.328253519474311E-002  1.162221829540022E-002
  9.961901396057328E-003  8.301584496714441E-003  6.641267597371552E-003
  4.980950698028665E-003  3.320633798685776E-003  1.660316899342887E-003
  0.000000000000000E+000  1.660316899342888E-002  1.494285209408599E-002
  1.328253519474311E-002  1.162221829540022E-002  9.961901396057328E-003
  8.301584496714441E-003  6.641267597371552E-003  4.980950698028665E-003
  3.320633798685776E-003  1.660316899342887E-003  0.000000000000000E+000
  1.660316899342888E-002  1.494285209408599E-002  1.328253519474311E-002
  1.162221829540022E-002  9.961901396057328E-003  8.301584496714441E-003
  6.641267597371552E-003  4.980950698028665E-003  3.320633798685776E-003
  1.660316899342887E-003  0.000000000000000E+000  1.660316899342888E-002
  1.494285209408599E-002  1.328253519474311E-002  1.162221829540022E-002
  9.961901396057328E-003  8.301584496714441E-003  6.641267597371552E-003
  4.980950698028665E-003  3.320633798685776E-003  1.660316899342887E-003
  0.000000000000000E+000
  9.528343547777883E-002  0.135341571679776       0.166015164011606     
  0.191893717657274       0.214021454705206       0.232697470413652     
  0.248626267158617       0.261643740305085       0.271407565723243     
  0.278060244858761       0.154833469934985       0.223967239591744     
  0.276334473667171       0.320290556023214       0.357813488534247     
  0.389519308432569       0.416521217775710       0.438678945497548     
  0.455604774667622       0.468286666679729       0.194411638341725     
  0.290343694934232       0.363108230770042       0.423706746531131     
  0.475436280500209       0.519346532689731       0.556658941371976     
  0.587351029239619       0.610890533099881       0.627302890602455     
  0.206995299296762       0.317742537624358       0.404038185816707     
  0.476464727765228       0.538505233089773       0.591467373187141     
  0.635820308619515       0.671716360064751       0.699041520218780     
  0.717173911502365       0.195566137693588       0.306256350694064     
  0.395530439810891       0.472200891575753       0.538678908625049     
  0.595691421850555       0.643324479322401       0.681522395279439     
  0.710172619813264       0.728355089956486       0.172817419080131     
  0.273432424139632       0.356265870368627       0.428639062462728     
  0.492357163106252       0.547739044360282       0.594599120103485     
  0.632549679893314       0.661049775721983       0.678917823670550     
  0.156247536427662       0.246325409627747       0.320269682139971     
  0.384932389708100       0.442131675526502       0.492270735152371     
  0.535204463552579       0.570556390129507       0.597698810058740     
  0.615127494185604       0.157612523180174       0.244304923220689     
  0.313452691281380       0.372873822163812       0.424936937462743     
  0.470441951202700       0.509546100990536       0.542054166388528     
  0.567390102580415       0.584014187358368       0.176746232285801     
  0.269089756251325       0.340042619716760       0.399402026994709     
  0.450439887652250       0.494499385370192       0.532121780727869     
  0.563374994023925       0.587822291608818       0.604002750522659     
  0.207492637648611       0.311934375740922       0.389804539453353     
  0.453407242423471       0.507077118304925       0.552754517780593     
  0.591348314835830       0.623163208340923       0.647935032755386     
  0.664313406090187       0.244152065763652       0.364226525875512     
  0.451966663390851       0.522406903819269       0.580977855472978     
  0.630202252470152       0.671348082027753       0.704956926484976     
  0.730922477444772       0.747978247378890       0.283422902590263     
  0.420826633026903       0.519923549446159       0.598536024697118     
  0.663188480525241       0.716975317487039       0.761512428659189     
  0.797576913961866       0.825216192677381       0.843220030833021     
  0.323606624514846       0.479019079915955       0.590100045722417     
  0.677466128884250       0.748731089139623       0.807555465508261     
  0.855896102185170       0.894746252693057       0.924285557328774     
  0.943340765997460       0.364027610717745       0.537697345311919     
  0.661009638074701       0.757357190640796       0.835436276467086     
  0.899467919704236       0.951738569992473       0.993446788217380     
   1.02489609776333        1.04495168521542       0.405661511912470     
  0.598120405434072       0.733971884394851       0.839456146062716     
  0.924384540518827       0.993568526097215        1.04965131574572     
   1.09405702844570        1.12722762625710        1.14808445064847     
  0.452419817207830       0.665463820432267       0.814653942054716     
  0.929528611797872        1.02122318906107        1.09526773967519     
   1.15475699398036        1.20140995843165        1.23585684243275     
   1.25712500857966       0.511489347383650       0.748974194853730     
  0.912958523007705        1.03750148772026        1.13560901400738     
   1.21383630149865        1.27591472014968        1.32398142770372     
   1.35893913989036        1.37999931976420       0.588881785619098     
  0.855817995234793        1.03596344499164        1.16991191638413     
   1.27342467991632        1.35454597951633        1.41789049057239     
   1.46614147823807        1.50056194565022        1.52064913657020     
  0.678108163835732       0.976219410089357        1.17154282484126     
   1.31286749347303        1.41944968568950        1.50119863117926     
   1.56379996887426        1.61056960500399        1.64317850236816     
   1.66150025759548       0.754997654848307        1.07636617351778     
   1.28026412453648        1.42338315269815        1.52839184560928     
   1.60700100168234        1.66590321578691        1.70897877005563     
   1.73825670898835        1.75404632344791       0.794308771924891     
   1.11962703717441        1.31857447793821        1.45377023957112     
   1.55026821177686        1.62082231677211        1.67262465190774     
   1.70972333687767        1.73419294931517        1.74675594558279     
  0.780879233138837        1.08262408885825        1.25869989853683     
   1.37451791747072        1.45538675364459        1.51353705432374     
   1.55555435390593        1.58514680873381        1.60413382104426     
   1.61330693144656       0.704124984650582       0.950938623415393     
   1.08781096510452        1.17588903304197        1.23680418642976     
   1.28037286828259        1.31170614275010        1.33374254117568     
   1.34805562438179        1.35553965486595       0.553623361024185     
  0.721846432867570       0.813166533083187       0.871886511620961     
  0.912597539746394       0.941805525243946       0.962910759361823     
  0.977928557070805       0.988238178936538       0.995965552808096     
  0.340194554535341       0.434345224576756       0.485867952479010     
  0.519172439175385       0.542344606288233       0.559011564026009     
  0.571076159389215       0.579649339557661       0.585396604984699     
  0.588749626676447     
  0.000000000000000E+000  0.000000000000000E+000  0.000000000000000E+000
  0.000000000000000E+000  0.000000000000000E+000  0.000000000000000E+000
  0.000000000000000E+000  0.000000000000000E+000  0.000000000000000E+000
  0.000000000000000E+000  0.000000000000000E+000  0.000000000000000E+000
  0.000000000000000E+000  0.000000000000000E+000  0.000000000000000E+000
  0.000000000000000E+000  0.000000000000000E+000  0.000000000000000E+000
  0.000000000000000E+000  0.000000000000000E+000  0.000000000000000E+000
  0.000000000000000E+000  0.000000000000000E+000  0.000000000000000E+000
  0.000000000000000E+000  0.000000000000000E+000  0.000000000000000E+000
  0.000000000000000E+000  0.000000000000000E+000  0.000000000000000E+000
  0.000000000000000E+000  0.000000000000000E+000  0.000000000000000E+000
  0.000000000000000E+000  0.000000000000000E+000  0.000000000000000E+000
  0.000000000000000E+000  0.000000000000000E+000  0.000000000000000E+000
  0.000000000000000E+000  0.000000000000000E+000  0.000000000000000E+000
  0.000000000000000E+000  0.000000000000000E+000  0.000000000000000E+000
  0.000000000000000E+000  0.000000000000000E+000  0.000000000000000E+000
  0.000000000000000E+000  0.000000000000000E+000  0.000000000000000E+000
  0.000000000000000E+000  0.000000000000000E+000  0.000000000000000E+000
  0.000000000000000E+000  0.000000000000000E+000  0.000000000000000E+000
  0.000000000000000E+000  0.000000000000000E+000  0.000000000000000E+000
  0.000000000000000E+000  0.000000000000000E+000  0.000000000000000E+000
  0.000000000000000E+000  0.000000000000000E+000  0.000000000000000E+000
  0.000000000000000E+000  0.000000000000000E+000  0.000000000000000E+000
  0.000000000000000E+000  0.000000000000000E+000  0.000000000000000E+000
  0.000000000000000E+000  0.000000000000000E+000  0.000000000000000E+000
  0.000000000000000E+000  0.000000000000000E+000  0.000000000000000E+000
  0.000000000000000E+000  0.000000000000000E+000  0.000000000000000E+000
  0.000000000000000E+000  0.000000000000000E+000  0.000000000000000E+000
  0.000000000000000E+000  0.000000000000000E+000  0.000000000000000E+000
  0.000000000000000E+000  0.000000000000000E+000  0.000000000000000E+000
  0.000000000000000E+000  0.000000000000000E+000  0.000000000000000E+000
  0.000000000000000E+000  0.000000000000000E+000  0.000000000000000E+000
  0.000000000000000E+000  0.000000000000000E+000  0.000000000000000E+000
  0.000000000000000E+000  0.000000000000000E+000  0.000000000000000E+000
  0.000000000000000E+000  0.000000000000000E+000  0.000000000000000E+000
  0.000000000000000E+000  0.000000000000000E+000  0.000000000000000E+000
  0.000000000000000E+000  0.000000000000000E+000  0.000000000000000E+000
  0.000000000000000E+000  0.000000000000000E+000  0.000000000000000E+000
  0.000000000000000E+000  0.000000000000000E+000  0.000000000000000E+000