 Title = "Wing and Tip"
 VARIABLES = "X" "Y" "Z" "GAM"
 Zone I=   11 J=   26 K=1  T="Blade"
 DATAPACKING=BLOCK
 VARLOCATION=([4]=CELLCENTERED)
  0.112485877045376       9.467090805310663E-002  7.685593906083654E-002
  5.904097006856660E-002  4.122600107629649E-002  2.341103208402641E-002
  5.596063091756452E-003 -1.221890590051355E-002 -3.003387489278356E-002
 -4.784884388505355E-002 -6.566381287732365E-002  0.111191740707102     
  9.337677171483200E-002  7.556180272256205E-002  5.774683373029204E-002
  3.993186473802197E-002  2.211689574575207E-002  4.301926753481982E-003
 -1.351304223878797E-002 -3.132801123105813E-002 -4.914298022332807E-002
 -6.695794921559808E-002  0.107329740995413       8.951477200314303E-002
  7.169980301087300E-002  5.388483401860292E-002  3.606986502633291E-002
  1.825489603406290E-002  4.399270417928572E-004 -1.737504195047702E-002
 -3.519001094274715E-002 -5.300497993501716E-002 -7.081994892728721E-002
  0.100960783952809       8.314581496053917E-002  6.533084596826905E-002
  4.751587697599913E-002  2.970090798372922E-002  1.188593899145908E-002
 -5.929030000810908E-003 -2.374399899308095E-002 -4.155896798535091E-002
 -5.937393697762096E-002 -7.718890596989093E-002  9.218531183648319E-002
  7.437034284421326E-002  5.655537385194317E-002  3.874040485967314E-002
  2.092543586740317E-002  3.110466875133148E-003 -1.470450211713682E-002
 -3.251947110940692E-002 -5.033444010167690E-002 -6.814940909394691E-002
 -8.596437808621686E-002  8.114171908392244E-002  6.332675009165242E-002
  4.551178109938248E-002  2.769681210711253E-002  9.881843114842432E-003
 -7.933125877427569E-003 -2.574809486969751E-002 -4.356306386196744E-002
 -6.137803285423754E-002 -7.919300184650770E-002 -9.700797083877762E-002
  6.800416974995750E-002  5.018920075768743E-002  3.237423176541742E-002
  1.455926277314724E-002 -3.255706219122640E-003 -2.107067521139274E-002
 -3.888564420366250E-002 -5.670061319593277E-002 -7.451558218820281E-002
 -9.233055118047272E-002 -0.110145520172743       5.297985083557603E-002
  3.516488184330607E-002  1.734991285103618E-002 -4.650561412339817E-004
 -1.828002513350383E-002 -3.609499412577410E-002 -5.390996311804391E-002
 -7.172493211031399E-002 -8.953990110258414E-002 -0.107354870094854     
 -0.125169839087124       3.630570482515119E-002  1.849073583288142E-002
  6.757668406115086E-004 -1.713920215165873E-002 -3.495417114392851E-002
 -5.276914013619859E-002 -7.058410912846853E-002 -8.839907812073867E-002
 -0.106214047113009      -0.124029016105279      -0.141843985097549     
  1.824469296191976E-002  4.297239696497971E-004 -1.738524502262016E-002
 -3.520021401489000E-002 -5.301518300716016E-002 -7.083015199943002E-002
 -8.864512099170001E-002 -0.106460089983970      -0.124275058976240     
 -0.142090027968510      -0.159904996960780      -9.183518079095807E-004
 -1.873332080017972E-002 -3.654828979244986E-002 -5.436325878471997E-002
 -7.217822777699003E-002 -8.999319676925986E-002 -0.107808165761530     
 -0.125623134753800      -0.143438103746070      -0.161253072738340     
 -0.179068041730610      -2.088121682086920E-002 -3.869618581313942E-002
 -5.651115480540945E-002 -7.432612379767931E-002 -9.214109278994967E-002
 -0.109956061782220      -0.127771030774489      -0.145585999766760     
 -0.163400968759030      -0.181215937751299      -0.199030906743570     
 -4.132907577046693E-002 -5.914404476273707E-002 -7.695901375500716E-002
 -9.477398274727722E-002 -0.112588951739548      -0.130403920731817     
 -0.148218889724087      -0.166033858716357      -0.183848827708627     
 -0.201663796700897      -0.219478765693167      -6.193945370610873E-002
 -7.975442269837882E-002 -9.756939169064904E-002 -0.115384360682919     
 -0.133199329675189      -0.151014298667459      -0.168829267659729     
 -0.186644236651999      -0.204459205644269      -0.222274174636539     
 -0.240089143628809      -8.238731265570630E-002 -0.100202281647976     
 -0.118017250640247      -0.135832219632517      -0.153647188624786     
 -0.171462157617057      -0.189277126609326      -0.207092095601597     
 -0.224907064593867      -0.242722033586137      -0.260537002578407     
 -0.102350177668666      -0.120165146660937      -0.137980115653206     
 -0.155795084645476      -0.173610053637746      -0.191425022630016     
 -0.209239991622287      -0.227054960614557      -0.244869929606826     
 -0.262684898599096      -0.280499867591366      -0.121513222438496     
 -0.139328191430766      -0.157143160423036      -0.174958129415306     
 -0.192773098407576      -0.210588067399846      -0.228403036392116     
 -0.246218005384386      -0.264032974376656      -0.281847943368926     
 -0.299662912361196      -0.139574234301727      -0.157389203293997     
 -0.175204172286267      -0.193019141278538      -0.210834110270807     
 -0.228649079263077      -0.246464048255347      -0.264279017247617     
 -0.282093986239887      -0.299908955232158      -0.317723924224427     
 -0.156248380312152      -0.174063349304422      -0.191878318296692     
 -0.209693287288962      -0.227508256281232      -0.245323225273502     
 -0.263138194265772      -0.280953163258042      -0.298768132250312     
 -0.316583101242582      -0.334398070234852      -0.171272699226534     
 -0.189087668218803      -0.206902637211073      -0.224717606203343     
 -0.242532575195613      -0.260347544187883      -0.278162513180154     
 -0.295977482172424      -0.313792451164694      -0.331607420156963     
 -0.349422389149233      -0.184410248560499      -0.202225217552769     
 -0.220040186545038      -0.237855155537308      -0.255670124529578     
 -0.273485093521848      -0.291300062514118      -0.309115031506388     
 -0.326930000498659      -0.344744969490928      -0.362559938483199     
 -0.195453841313059      -0.213268810305329      -0.231083779297600     
 -0.248898748289869      -0.266713717282139      -0.284528686274409     
 -0.302343655266679      -0.320158624258950      -0.337973593251219     
 -0.355788562243489      -0.373603531235759      -0.204229313429385     
 -0.222044282421655      -0.239859251413925      -0.257674220406196     
 -0.275489189398466      -0.293304158390735      -0.311119127383005     
 -0.328934096375275      -0.346749065367545      -0.364564034359816     
 -0.382379003352086      -0.210598270471989      -0.228413239464260     
 -0.246228208456529      -0.264043177448799      -0.281858146441069     
 -0.299673115433339      -0.317488084425609      -0.335303053417879     
 -0.353118022410149      -0.370932991402419      -0.388747960394689     
 -0.214460270183678      -0.232275239175948      -0.250090208168218     
 -0.267905177160488      -0.285720146152758      -0.303535115145028     
 -0.321350084137298      -0.339165053129568      -0.356980022121838     
 -0.374794991114108      -0.392609960106378      -0.215754406521953     
 -0.233569375514223      -0.251384344506492      -0.269199313498763     
 -0.287014282491032      -0.304829251483303      -0.322644220475573     
 -0.340459189467843      -0.358274158460113      -0.376089127452382     
 -0.393904096444653     
 -0.244266820907626      -0.237726734700379      -0.231186648493133     
 -0.224646562285887      -0.218106476078640      -0.211566389871394     
 -0.205026303664147      -0.198486217456901      -0.191946131249655     
 -0.185406045042408      -0.178865958835162      -0.247792003605154     
 -0.241251917397908      -0.234711831190661      -0.228171744983415     
 -0.221631658776169      -0.215091572568922      -0.208551486361676     
 -0.202011400154429      -0.195471313947183      -0.188931227739937     
 -0.182391141532690      -0.258311957460757      -0.251771871253511     
 -0.245231785046264      -0.238691698839018      -0.232151612631771     
 -0.225611526424525      -0.219071440217279      -0.212531354010032     
 -0.205991267802786      -0.199451181595540      -0.192911095388293     
 -0.275660776517816      -0.269120690310570      -0.262580604103324     
 -0.256040517896077      -0.249500431688831      -0.242960345481584     
 -0.236420259274338      -0.229880173067092      -0.223340086859845     
 -0.216800000652599      -0.210259914445353      -0.299564859536120     
 -0.293024773328873      -0.286484687121627      -0.279944600914380     
 -0.273404514707134      -0.266864428499887      -0.260324342292641     
 -0.253784256085395      -0.247244169878148      -0.240704083670902     
 -0.234163997463656      -0.329647224846861      -0.323107138639614     
 -0.316567052432368      -0.310026966225122      -0.303486880017875     
 -0.296946793810629      -0.290406707603382      -0.283866621396136     
 -0.277326535188890      -0.270786448981643      -0.264246362774397     
 -0.365433455578756      -0.358893369371510      -0.352353283164264     
 -0.345813196957017      -0.339273110749771      -0.332733024542525     
 -0.326192938335278      -0.319652852128032      -0.313112765920785     
 -0.306572679713539      -0.300032593506292      -0.406359181495506     
 -0.399819095288259      -0.393279009081013      -0.386738922873767     
 -0.380198836666520      -0.373658750459274      -0.367118664252028     
 -0.360578578044781      -0.354038491837535      -0.347498405630289     
 -0.340958319423042      -0.451778979451558      -0.445238893244312     
 -0.438698807037066      -0.432158720829819      -0.425618634622573     
 -0.419078548415327      -0.412538462208080      -0.405998376000834     
 -0.399458289793588      -0.392918203586341      -0.386378117379095     
 -0.500976552100675      -0.494436465893429      -0.487896379686182     
 -0.481356293478936      -0.474816207271690      -0.468276121064443     
 -0.461736034857197      -0.455195948649951      -0.448655862442704     
 -0.442115776235458      -0.435575690028211      -0.553176024332974     
 -0.546635938125728      -0.540095851918482      -0.533555765711235     
 -0.527015679503989      -0.520475593296743      -0.513935507089496     
 -0.507395420882249      -0.500855334675003      -0.494315248467757     
 -0.487775162260511      -0.607554179288899      -0.601014093081653     
 -0.594474006874406      -0.587933920667159      -0.581393834459914     
 -0.574853748252667      -0.568313662045421      -0.561773575838174     
 -0.555233489630928      -0.548693403423682      -0.542153317216436     
 -0.663253440980858      -0.656713354773613      -0.650173268566366     
 -0.643633182359119      -0.637093096151873      -0.630553009944627     
 -0.624012923737381      -0.617472837530134      -0.610932751322888     
 -0.604392665115641      -0.597852578908395      -0.719395398778846     
 -0.712855312571600      -0.706315226364354      -0.699775140157107     
 -0.693235053949861      -0.686694967742614      -0.680154881535368     
 -0.673614795328121      -0.667074709120875      -0.660534622913629     
 -0.653994536706382      -0.775094660470806      -0.768554574263560     
 -0.762014488056313      -0.755474401849067      -0.748934315641820     
 -0.742394229434574      -0.735854143227327      -0.729314057020081     
 -0.722773970812835      -0.716233884605589      -0.709693798398342     
 -0.829472815426730      -0.822932729219484      -0.816392643012238     
 -0.809852556804991      -0.803312470597745      -0.796772384390499     
 -0.790232298183252      -0.783692211976006      -0.777152125768760     
 -0.770612039561513      -0.764071953354267      -0.881672287659030     
 -0.875132201451783      -0.868592115244536      -0.862052029037290     
 -0.855511942830044      -0.848971856622798      -0.842431770415551     
 -0.835891684208305      -0.829351598001059      -0.822811511793812     
 -0.816271425586566      -0.930869860308146      -0.924329774100900     
 -0.917789687893654      -0.911249601686407      -0.904709515479160     
 -0.898169429271914      -0.891629343064668      -0.885089256857421     
 -0.878549170650174      -0.872009084442929      -0.865468998235682     
 -0.976289658264198      -0.969749572056952      -0.963209485849706     
 -0.956669399642460      -0.950129313435213      -0.943589227227967     
 -0.937049141020720      -0.930509054813474      -0.923968968606227     
 -0.917428882398981      -0.910888796191735       -1.01721538418095     
  -1.01067529797370       -1.00413521176646      -0.997595125559209     
 -0.991055039351963      -0.984514953144716      -0.977974866937470     
 -0.971434780730224      -0.964894694522977      -0.958354608315731     
 -0.951814522108485       -1.05300161491284       -1.04646152870560     
  -1.03992144249835       -1.03338135629110       -1.02684127008386     
  -1.02030118387661       -1.01376109766937       -1.00722101146212     
  -1.00068092525487      -0.994140839047626      -0.987600752840380     
  -1.08308398022358       -1.07654389401634       -1.07000380780909     
  -1.06346372160185       -1.05692363539460       -1.05038354918735     
  -1.04384346298011       -1.03730337677286       -1.03076329056561     
  -1.02422320435837       -1.01768311815112       -1.10698806324189     
  -1.10044797703464       -1.09390789082740       -1.08736780462015     
  -1.08082771841290       -1.07428763220566       -1.06774754599841     
  -1.06120745979116       -1.05466737358392       -1.04812728737667     
  -1.04158720116942       -1.12433688229895       -1.11779679609170     
  -1.11125670988445       -1.10471662367721       -1.09817653746996     
  -1.09163645126272       -1.08509636505547       -1.07855627884822     
  -1.07201619264098       -1.06547610643373       -1.05893602022648     
  -1.13485683615455       -1.12831674994730       -1.12177666374006     
  -1.11523657753281       -1.10869649132556       -1.10215640511832     
  -1.09561631891107       -1.08907623270382       -1.08253614649658     
  -1.07599606028933       -1.06945597408209       -1.13838201885208     
  -1.13184193264483       -1.12530184643759       -1.11876176023034     
  -1.11222167402309       -1.10568158781585       -1.09914150160860     
  -1.09260141540135       -1.08606132919411       -1.07952124298686     
  -1.07298115677962     
  1.660316899342888E-002  1.494285209408599E-002  1.328253519474311E-002
  1.162221829540022E-002  9.961901396057328E-003  8.301584496714441E-003
  6.641267597371552E-003  4.980950698028665E-003  3.320633798685776E-003
  1.660316899342887E-003  0.000000000000000E+000  1.660316899342888E-002
  1.494285209408599E-002  1.328253519474311E-002  1.162221829540022E-002
  9.961901396057328E-003  8.301584496714441E-003  6.641267597371552E-003
  4.980950698028665E-003  3.320633798685776E-003  1.660316899342887E-003
  0.000000000000000E+000  1.660316899342888E-002  1.494285209408599E-002
  1.328253519474311E-002  1.162221829540022E-002  9.961901396057328E-003
  8.301584496714441E-003  6.641267597371552E-003  4.980950698028665E-003
  3.320633798685776E-003  1.660316899342887E-003  0.000000000000000E+000
  1.660316899342888E-002  1.494285209408599E-002  1.328253519474311E-002
  1.162221829540022E-002  9.961901396057328E-003  8.301584496714441E-003
  6.641267597371552E-003  4.980950698028665E-003  3.320633798685776E-003
  1.660316899342887E-003  0.000000000000000E+000  1.660316899342888E-002
  1.494285209408599E-002  1.328253519474311E-002  1.162221829540022E-002
  9.961901396057328E-003  8.301584496714441E-003  6.641267597371552E-003
  4.980950698028665E-003  3.320633798685776E-003  1.660316899342887E-003
  0.000000000000000E+000  1.660316899342888E-002  1.494285209408599E-002
  1.328253519474311E-002  1.162221829540022E-002  9.961901396057328E-003
  8.301584496714441E-003  6.641267597371552E-003  4.980950698028665E-003
  3.320633798685776E-003  1.660316899342887E-003  0.000000000000000E+000
  1.660316899342888E-002  1.494285209408599E-002  1.328253519474311E-002
  1.162221829540022E-002  9.961901396057328E-003  8.301584496714441E-003
  6.641267597371552E-003  4.980950698028665E-003  3.320633798685776E-003
  1.660316899342887E-003  0.000000000000000E+000  1.660316899342888E-002
  1.494285209408599E-002  1.328253519474311E-002  1.162221829540022E-002
  9.961901396057328E-003  8.301584496714441E-003  6.641267597371552E-003
  4.980950698028665E-003  3.320633798685776E-003  1.660316899342887E-003
  0.000000000000000E+000  1.660316899342888E-002  1.494285209408599E-002
  1.328253519474311E-002  1.162221829540022E-002  9.961901396057328E-003
  8.301584496714441E-003  6.641267597371552E-003  4.980950698028665E-003
  3.320633798685776E-003  1.660316899342887E-003  0.000000000000000E+000
  1.660316899342888E-002  1.494285209408599E-002  1.328253519474311E-002
  1.162221829540022E-002  9.961901396057328E-003  8.301584496714441E-003
  6.641267597371552E-003  4.980950698028665E-003  3.320633798685776E-003
  1.660316899342887E-003  0.000000000000000E+000  1.660316899342888E-002
  1.494285209408599E-002  1.328253519474311E-002  1.162221829540022E-002
  9.961901396057328E-003  8.301584496714441E-003  6.641267597371552E-003
  4.980950698028665E-003  3.320633798685776E-003  1.660316899342887E-003
  0.000000000000000E+000  1.660316899342888E-002  1.494285209408599E-002
  1.328253519474311E-002  1.162221829540022E-002  9.961901396057328E-003
  8.301584496714441E-003  6.641267597371552E-003  4.980950698028665E-003
  3.320633798685776E-003  1.660316899342887E-003  0.000000000000000E+000
  1.660316899342888E-002  1.494285209408599E-002  1.328253519474311E-002
  1.162221829540022E-002  9.961901396057328E-003  8.301584496714441E-003
  6.641267597371552E-003  4.980950698028665E-003  3.320633798685776E-003
  1.660316899342887E-003  0.000000000000000E+000  1.660316899342888E-002
  1.494285209408599E-002  1.328253519474311E-002  1.162221829540022E-002
  9.961901396057328E-003  8.301584496714441E-003  6.641267597371552E-003
  4.980950698028665E-003  3.320633798685776E-003  1.660316899342887E-003
  0.000000000000000E+000  1.660316899342888E-002  1.494285209408599E-002
  1.328253519474311E-002  1.162221829540022E-002  9.961901396057328E-003
  8.301584496714441E-003  6.641267597371552E-003  4.980950698028665E-003
  3.320633798685776E-003  1.660316899342887E-003  0.000000000000000E+000
  1.660316899342888E-002  1.494285209408599E-002  1.328253519474311E-002
  1.162221829540022E-002  9.961901396057328E-003  8.301584496714441E-003
  6.641267597371552E-003  4.980950698028665E-003  3.320633798685776E-003
  1.660316899342887E-003  0.000000000000000E+000  1.660316899342888E-002
  1.494285209408599E-002  1.328253519474311E-002  1.162221829540022E-002
  9.961901396057328E-003  8.301584496714441E-003  6.641267597371552E-003
  4.980950698028665E-003  3.320633798685776E-003  1.660316899342887E-003
  0.000000000000000E+000  1.660316899342888E-002  1.494285209408599E-002
  1.328253519474311E-002  1.162221829540022E-002  9.961901396057328E-003
  8.301584496714441E-003  6.641267597371552E-003  4.980950698028665E-003
  3.320633798685776E-003  1.660316899342887E-003  0.000000000000000E+000
  1.660316899342888E-002  1.494285209408599E-002  1.328253519474311E-002
  1.162221829540022E-002  9.961901396057328E-003  8.301584496714441E-003
  6.641267597371552E-003  4.980950698028665E-003  3.320633798685776E-003
  1.660316899342887E-003  0.000000000000000E+000  1.660316899342888E-002
  1.494285209408599E-002  1.328253519474311E-002  1.162221829540022E-002
  9.961901396057328E-003  8.301584496714441E-003  6.641267597371552E-003
  4.980950698028665E-003  3.320633798685776E-003  1.660316899342887E-003
  0.000000000000000E+000  1.660316899342888E-002  1.494285209408599E-002
  1.328253519474311E-002  1.162221829540022E-002  9.961901396057328E-003
  8.301584496714441E-003  6.641267597371552E-003  4.980950698028665E-003
  3.320633798685776E-003  1.660316899342887E-003  0.000000000000000E+000
  1.660316899342888E-002  1.494285209408599E-002  1.328253519474311E-002
  1.162221829540022E-002  9.961901396057328E-003  8.301584496714441E-003
  6.641267597371552E-003  4.980950698028665E-003  3.320633798685776E-003
  1.660316899342887E-003  0.000000000000000E+000  1.660316899342888E-002
  1.494285209408599E-002  1.328253519474311E-002  1.162221829540022E-002
  9.961901396057328E-003  8.301584496714441E-003  6.641267597371552E-003
  4.980950698028665E-003  3.320633798685776E-003  1.660316899342887E-003
  0.000000000000000E+000  1.660316899342888E-002  1.494285209408599E-002
  1.328253519474311E-002  1.162221829540022E-002  9.961901396057328E-003
  8.301584496714441E-003  6.641267597371552E-003  4.980950698028665E-003
  3.320633798685776E-003  1.660316899342887E-003  0.000000000000000E+000
  1.660316899342888E-002  1.494285209408599E-002  1.328253519474311E-002
  1.162221829540022E-002  9.961901396057328E-003  8.301584496714441E-003
  6.641267597371552E-003  4.980950698028665E-003  3.320633798685776E-003
  1.660316899342887E-003  0.000000000000000E+000  1.660316899342888E-002
  1.494285209408599E-002  1.328253519474311E-002  1.162221829540022E-002
  9.961901396057328E-003  8.301584496714441E-003  6.641267597371552E-003
  4.980950698028665E-003  3.320633798685776E-003  1.660316899342887E-003
  0.000000000000000E+000
  0.170982001818379       0.241975446381417       0.295714061212056     
  0.340459838224593       0.378914035248191       0.411931228110721     
  0.439129287214235       0.460662976166340       0.477564143257430     
  0.490369549818443       0.279900307395965       0.403158954306268     
  0.495337036013637       0.571966454416968       0.638158241967167     
  0.695409976549252       0.742732694349158       0.780360973017071     
  0.810331038378717       0.834696066590462       0.359814982637452     
  0.534142289531314       0.664152581405884       0.772454746575904     
  0.866761103179402       0.949700939431241        1.01871422010032     
   1.07378265264774        1.11763453712084        1.15038824045606     
  0.403833205233621       0.611516855656238       0.771249257266472     
  0.906991956021135        1.02633532176135        1.13031779437637     
   1.21600475681846        1.28467108251207        1.33943753153384     
   1.37813716076170       0.425986251113732       0.647590292484668     
  0.821007007084868       0.972337126289180        1.10771880031471     
   1.22519481541004        1.32118437838277        1.39834358390434     
   1.46045042142509        1.50317361244702       0.445177453166851     
  0.675849867912633       0.854946947027087        1.00789675226728     
   1.14070544091312        1.25424719320312        1.35068787210886     
   1.43214143770239        1.49780849165758        1.54272101210818     
  0.472640105600147       0.713197698960911       0.895466448966678     
   1.04625315649344        1.17453895996415        1.28441127057562     
   1.37861430378846        1.45758541224586        1.52050744684318     
   1.56465408160253       0.506909088323985       0.760170700823742     
  0.948005495751141        1.10076902581832        1.22963719564101     
   1.34024108304372        1.43480216878870        1.51337265512659     
   1.57566795552058        1.61968342479057       0.544277522687120     
  0.811964049444578        1.00776468941040        1.16567889929519     
   1.29850100993892        1.41213534122983        1.50870128753137     
   1.58858361164283        1.65171635618002        1.69615990480696     
  0.582591096928021       0.865957059938525        1.07143611566504     
   1.23606406690390        1.37363107646925        1.49040162102301     
   1.58895855952138        1.67021128000436        1.73431409333014     
   1.77929680614972       0.620762055790173       0.920431869669691     
   1.13631599856663        1.30814389861505        1.45062856196393     
   1.57056620320120        1.67118264764919        1.75399473206564     
   1.81941684068575        1.86538049171316       0.657851492461516     
  0.973665615277115        1.19996033075334        1.37903417682902     
   1.52653732555551        1.64985164439280        1.75279280269227     
   1.83736764724021        1.90421165913526        1.95122906207369     
  0.692417887826649        1.02321252717846        1.25906356245561     
   1.44470618692869        1.59674952911265        1.72317089672980     
   1.82827731723251        1.91443114328944        1.98244224660650     
   2.03025498938663       0.721976278926797        1.06523097276692     
   1.30875490336807        1.49945879465952        1.65486061772914     
   1.78349548086736        1.89006493568922        1.97718718537353     
   2.04582617336354        2.09403777586888       0.743042983341620     
   1.09461316206024        1.34282854051896        1.53627482249480     
   1.69319771851606        1.82257018669691        1.92938593692476     
   2.01646413808879        2.08491958623335        2.13297691939252     
  0.751207866815164        1.10507877804982        1.35382981908356     
   1.54686649709322        1.70281919006938        1.83091182396882     
   1.93631468905838        2.02198385083190        2.08918397728398     
   2.13637706834355       0.741669195016403        1.09003173282623     
   1.33415676950145        1.52297825606426        1.67498771268998     
   1.79938472379698        1.90137427633612        1.98399086969115     
   2.04864336724084        2.09410942761534       0.711998454399948     
   1.04666558592057        1.28095448340913        1.46169397506025     
   1.60664473788514        1.72472307311094        1.82104508720957     
   1.89868051047518        1.95920867912430        2.00184288517587     
  0.672798053619592       0.989791869026672        1.21082354071849     
   1.38002136190644        1.51453218239688        1.62319557945255     
   1.71111173202833        1.78135444555859        1.83565616706720     
   1.87375805460772       0.675828767634127       0.982670485984037     
   1.18908769634073        1.34220046322945        1.46108922540748     
   1.55583456049562        1.63183400123985        1.69175541130434     
   1.73714049865408        1.76808327643292       0.764167472694507     
   1.07702939155066        1.27124685978077        1.40667835635375     
   1.50725066726061        1.58590290559320        1.64851830946134     
   1.69616793287352        1.73079143749913        1.75294026307480     
  0.839167410351920        1.14906669735139        1.32567983384541     
   1.44127639403108        1.52288889150894        1.58507715836646     
   1.63464459616119        1.67193516249582        1.69883381557709     
   1.71535691037422       0.816090621093216        1.08380279489386     
   1.22560717714625        1.31449722614222        1.37554845026367     
   1.42187562304039        1.45930511626935        1.48824358511550     
   1.50947769297063        1.52327360370906       0.666282579264917     
  0.853543073423195       0.949928926122614        1.00975334009982     
   1.05066553474967        1.08178256096891        1.10731502441101     
   1.12758098887284        1.14314737410083        1.15589787378509     
  0.414155106547150       0.519537268867376       0.574233698249887     
  0.608318398586708       0.631665900036355       0.649437227303852     
  0.664118497434836       0.675811439525663       0.684646281917032     
  0.690801389730378     
 Zone I=   61 J=1    K=1  T="NearWake"
 DATAPACKING=BLOCK
 VARLOCATION=([4]=CELLCENTERED)
 -0.387737604078952      -0.625381733518383      -0.820119651322982     
 -0.965987923216259       -1.05677390652954       -1.08190716127969     
  -1.04505483052755      -0.939940980325486      -0.780555771625153     
 -0.567274736081965      -0.323203034563123      -5.761220830500142E-002
  0.224441618978653       0.483947004806168       0.708833815866761     
  0.903238625446063        1.02974717888080        1.11879538604831     
   1.14420524206218        1.11433079537756        1.03583508022980     
  0.919502130869411       0.771297274687018       0.592148157184821     
  0.397659973461719       0.198844089883130      -2.139692728543457E-002
 -0.220162739946376      -0.405352378248359      -0.574446614594575     
 -0.731222245391544      -0.851572221095916      -0.944236754627873     
  -1.03894897571519       -1.09503026848581       -1.12438288890896     
  -1.14553680179327       -1.12853219527521       -1.12746054870986     
  -1.07339532839373       -1.05732710115428      -0.966548926511666     
 -0.931603928571459      -0.846511308530291      -0.772739191907834     
 -0.713652504375546      -0.642378094578175      -0.569645573255174     
 -0.497885336917500      -0.432307070049086      -0.371745231221773     
 -0.304083961550819      -0.247309824940620      -0.209751614036120     
 -0.167747592371080      -0.118968802842607      -8.484855391259928E-002
 -5.554112953703924E-002 -3.719473467738753E-002 -1.854126519966399E-002
 -8.472832394136232E-003
  -1.01523135917534      -0.888070617541444      -0.702527754091028     
 -0.478530222477283      -0.227145657740275       3.859623128398771E-002
  0.305504904258521       0.550007971746767       0.776139381881901     
  0.943090605217595        1.05639969513155        1.12440753219244     
   1.09264405990108        1.01777865421418       0.875581685278517     
  0.694597144775405       0.466556365772741       0.228687014388808     
 -1.586812616664486E-002 -0.257627539323793      -0.484104105336469     
 -0.681839813676387      -0.855366853071914      -0.987423201012955     
  -1.07964471354919       -1.13588688248742       -1.12262115484881     
  -1.12204978687591       -1.06987530323981      -0.985124128572292     
 -0.882918113586735      -0.764674511610255      -0.621151747620032     
 -0.486578908326724      -0.339169009083900      -0.195182048442470     
 -4.295452579622461E-002  9.677973408782864E-002  0.233977947239405     
  0.356156063795234       0.481879498942045       0.569418579561737     
  0.678564990219929       0.749525595225448       0.818007690890923     
  0.891470123962134       0.950557663187416       0.981373881838539     
   1.02406941337748        1.05473233782595        1.07395296343742     
   1.07545751805744        1.08827641043956        1.11294191411862     