 Title = "Wing and Wake"
 VARIABLES = "X" "Y" "Z" "GAM" "skew"
 Zone I=   17 J=   20 K=1  T="Blade 01"
 DATAPACKING=BLOCK
 VARLOCATION=([4]=CELLCENTERED,[5]=CELLCENTERED)
  0.221663389895096       0.222945346372706       0.226247273857763     
  0.231211479631014       0.237987540569037       0.246850225223247     
  0.257876833540094       0.270737092178089       0.284664269726175     
  0.298568610849395       0.311369581437887       0.322310953790688     
  0.331067286214966       0.337733685419691       0.342607807512603     
  0.346067152300407       0.348454094645654       0.227471095821221     
  0.228753052298829       0.232054979783890       0.237019185557139     
  0.243795246495163       0.252657931149370       0.263684539466224     
  0.276544798104208       0.290471975652303       0.304376316775521     
  0.317177287364013       0.328118659716816       0.336874992141096     
  0.343541391345823       0.348415513438719       0.351874858226535     
  0.354261800571778       0.235684515813596       0.236966472291207     
  0.240268399776264       0.245232605549510       0.252008666487538     
  0.260871351141738       0.271897959458600       0.284758218096587     
  0.298685395644677       0.312589736767895       0.325390707356389     
  0.336332079709189       0.345088412133468       0.351754811338191     
  0.356628933431100       0.360088278218907       0.362475220564154     
  0.247150746589879       0.248432703067491       0.251734630552550     
  0.256698836325797       0.263474897263820       0.272337581918030     
  0.283364190234884       0.296224448872872       0.310151626420963     
  0.324055967544172       0.336856938132673       0.347798310485472     
  0.356554642909754       0.363221042114482       0.368095164207383     
  0.371554508995192       0.373941451340437       0.262872225416440     
  0.264154181894053       0.267456109379109       0.272420315152358     
  0.279196376090383       0.288059060744591       0.299085669061441     
  0.311945927699431       0.325873105247524       0.339777446370739     
  0.352578416959232       0.363519789312027       0.372276121736313     
  0.378942520941043       0.383816643033945       0.387275987821752     
  0.389662930166997       0.283903846607677       0.285185803085289     
  0.288487730570341       0.293451936343594       0.300227997281617     
  0.309090681935828       0.320117290252672       0.332977548890664     
  0.346904726438759       0.360809067561975       0.373610038150473     
  0.384551410503273       0.393307742927551       0.399974142132271     
  0.404848264225182       0.408307609012991       0.410694551358233     
  0.311131152820980       0.312413109298584       0.315715036783636     
  0.320679242556891       0.327455303494919       0.336317988149125     
  0.347344596465978       0.360204855103969       0.374132032652054     
  0.388036373775270       0.400837344363767       0.411778716716570     
  0.420535049140849       0.427201448345573       0.432075570438479     
  0.435534915226286       0.437921857571532       0.344920598840947     
  0.346202555318559       0.349504482803615       0.354468688576864     
  0.361244749514892       0.370107434169095       0.381134042485939     
  0.393994301123938       0.407921478672027       0.421825819795243     
  0.434626790383742       0.445568162736539       0.454324495160822     
  0.460990894365547       0.465865016458454       0.469324361246261     
  0.471711303591507       0.384721419506455       0.386003375984072     
  0.389305303469126       0.394269509242370       0.401045570180393     
  0.409908254834608       0.420934863151459       0.433795121789446     
  0.447722299337540       0.461626640460754       0.474427611049251     
  0.485368983402052       0.494125315826333       0.500791715031055     
  0.505665837123959       0.509125181911773       0.511512124257003     
  0.428820063039293       0.430102019516905       0.433403947001964     
  0.438368152775207       0.445144213713222       0.454006898367441     
  0.465033506684296       0.477893765322283       0.491820942870369     
  0.505725283993577       0.518526254582086       0.529467626934883     
  0.538223959359166       0.544890358563894       0.549764480656799     
  0.553223825444603       0.555610767789846       0.474487341524732     
  0.475769298002341       0.479071225487398       0.484035431260646     
  0.490811492198669       0.499674176852876       0.510700785169732     
  0.523561043807722       0.537488221355798       0.551392562479025     
  0.564193533067511       0.575134905420320       0.583891237844600     
  0.590557637049333       0.595431759142232       0.598891103930042     
  0.601278046275285       0.518585985057559       0.519867941535178     
  0.523169869020233       0.528134074793481       0.534910135731504     
  0.543772820385712       0.554799428702568       0.567659687340557     
  0.581586864888649       0.595491206011858       0.608292176600358     
  0.619233548953159       0.627989881377438       0.634656280582165     
  0.639530402675073       0.642989747462880       0.645376689808124     
  0.558386805723073       0.559668762200687       0.562970689685738     
  0.567934895458991       0.574710956397016       0.583573641051225     
  0.594600249368077       0.607460508006065       0.621387685554156     
  0.635292026677371       0.648092997265869       0.659034369618666     
  0.667790702042948       0.674457101247679       0.679331223340581     
  0.682790568128380       0.685177510473635       0.592176251743045     
  0.593458208220657       0.596760135705711       0.601724341478962     
  0.608500402416981       0.617363087071192       0.628389695388050     
  0.641249954026038       0.655177131574128       0.669081472697344     
  0.681882443285839       0.692823815638639       0.701580148062918     
  0.708246547267650       0.713120669360553       0.716580014148350     
  0.718966956493595       0.619403557956342       0.620685514433955     
  0.623987441919013       0.628951647692259       0.635727708630286     
  0.644590393284498       0.655617001601338       0.668477260239335     
  0.682404437787427       0.696308778910633       0.709109749499139     
  0.720051121851939       0.728807454276218       0.735473853480946     
  0.740347975573850       0.743807320361655       0.746194262706892     
  0.640435179147580       0.641717135625188       0.645019063110253     
  0.649983268883498       0.656759329821524       0.665622014475737     
  0.676648622792589       0.689508881430557       0.703436058978660     
  0.717340400101871       0.730141370690375       0.741082743043162     
  0.749839075467440       0.756505474672177       0.761379596765080     
  0.764838941552894       0.767225883898135       0.656156657974143     
  0.657438614451740       0.660740541936801       0.665704747710058     
  0.672480808648083       0.681343493302293       0.692370101619146     
  0.705230360257131       0.719157537805218       0.733061878928436     
  0.745862849516923       0.756804221869726       0.765560554293997     
  0.772226953498730       0.777101075591647       0.780560420379449     
  0.782947362724700       0.667622888750423       0.668904845228035     
  0.672206772713097       0.677170978486328       0.683947039424368     
  0.692809724078557       0.703836332395426       0.716696591033412     
  0.730623768581506       0.744528109704718       0.757329080293219     
  0.768270452646024       0.777026785070299       0.783693184275032     
  0.788567306367933       0.792026651155729       0.794413593500978     
  0.675836308742800       0.677118265220415       0.680420192705472     
  0.685384398478717       0.692160459416743       0.701023144070952     
  0.712049752387801       0.724910011025792       0.738837188573878     
  0.752741529697096       0.765542500285593       0.776483872638373     
  0.785240205062671       0.791906604267387       0.796780726360307     
  0.800240071148109       0.802627013493359       0.681644014668931     
  0.682925971146539       0.686227898631595       0.691192104404845     
  0.697968165342864       0.706830849997068       0.717857458313912     
  0.730717716951914       0.744644894499989       0.758549235623211     
  0.771350206211719       0.782291578564517       0.791047910988791     
  0.797714310193524       0.802588432286422       0.806047777074236     
  0.808434719419485     
  0.374115123339686       0.372936338750410       0.369900150469243     
  0.365335464096732       0.359104740706949       0.350955325128143     
  0.340816138515415       0.328990873803768       0.316184555841715     
  0.303399236428511       0.291628488262698       0.281567677821573     
  0.273516055242659       0.267386168007220       0.262904315378285     
  0.259723378742700       0.257528537575152       0.380431142652959     
  0.379252358063685       0.376216169782519       0.371651483410006     
  0.365420760020221       0.357271344441415       0.347132157828691     
  0.335306893117040       0.322500575154989       0.309715255741785     
  0.297944507575970       0.287883697134849       0.279832074555932     
  0.273702187320493       0.269220334691556       0.266039398055974     
  0.263844556888423       0.389363433640096       0.388184649050822     
  0.385148460769653       0.380583774397141       0.374353051007355     
  0.366203635428549       0.356064448815829       0.344239184104176     
  0.331432866142125       0.318647546728919       0.306876798563107     
  0.296815988121986       0.288764365543070       0.282634478307629     
  0.278152625678693       0.274971689043109       0.272776847875561     
  0.401833234273024       0.400654449683747       0.397618261402582     
  0.393053575030070       0.386822851640285       0.378673436061479     
  0.368534249448757       0.356708984737108       0.343902666775056     
  0.331117347361846       0.319346599196035       0.309285788754912     
  0.301234166175998       0.295104278940558       0.290622426311618     
  0.287441489676036       0.285246648508488       0.418930719091445     
  0.417751934502169       0.414715746221002       0.410151059848489     
  0.403920336458703       0.395770920879901       0.385631734267172     
  0.373806469555525       0.361000151593474       0.348214832180266     
  0.336444084014453       0.326383273573330       0.318331650994417     
  0.312201763758977       0.307719911130042       0.304538974494454     
  0.302344133326907       0.441803110931356       0.440624326342080     
  0.437588138060907       0.433023451688398       0.426792728298610     
  0.418643312719805       0.408504126107081       0.396678861395431     
  0.383872543433380       0.371087224020175       0.359316475854365     
  0.349255665413241       0.341204042834326       0.335074155598884     
  0.330592302969948       0.327411366334363       0.325216525166815     
  0.471413458645076       0.470234674055794       0.467198485774625     
  0.462633799402115       0.456403076012333       0.448253660433526     
  0.438114473820798       0.426289209109154       0.413482891147100     
  0.400697571733890       0.388926823568079       0.378866013126961     
  0.370814390548045       0.364684503312604       0.360202650683669     
  0.357021714048082       0.354826872880533       0.508160290588976     
  0.506981505999700       0.503945317718529       0.499380631346022     
  0.493149907956238       0.485000492377431       0.474861305764704     
  0.463036041053060       0.450229723090997       0.437444403677796     
  0.425673655511985       0.415612845070862       0.407561222491952     
  0.401431335256506       0.396949482627572       0.393768545991987     
  0.391573704824442       0.551444636457218       0.550265851867950     
  0.547229663586781       0.542664977214270       0.536434253824483     
  0.528284838245678       0.518145651632947       0.506320386921302     
  0.493514068959249       0.480728749546047       0.468958001380235     
  0.458897190939111       0.450845568360199       0.444715681124752     
  0.440233828495814       0.437052891860239       0.434858050692686     
  0.599402967644350       0.598224183055078       0.595187994773904     
  0.590623308401391       0.584392585011606       0.576243169432798     
  0.566103982820079       0.554278718108423       0.541472400146372     
  0.528687080733168       0.516916332567360       0.506855522126230     
  0.498803899547319       0.492674012311878       0.488192159682945     
  0.485011223047359       0.482816381879814       0.649067226917732     
  0.647888442328454       0.644852254047288       0.640287567674779     
  0.634056844284993       0.625907428706187       0.615768242093457     
  0.603942977381818       0.591136659419756       0.578351340006549     
  0.566580591840738       0.556519781399616       0.548468158820699     
  0.542338271585264       0.537856418956320       0.534675482320739     
  0.532480641153191       0.697025558104856       0.695846773515584     
  0.692810585234414       0.688245898861903       0.682015175472111     
  0.673865759893303       0.663726573280582       0.651901308568933     
  0.639094990606886       0.626309671193676       0.614538923027863     
  0.604478112586744       0.596426490007827       0.590296602772393     
  0.585814750143455       0.582633813507868       0.580438972340321     
  0.740309903973103       0.739131119383825       0.736094931102657     
  0.731530244730151       0.725299521340359       0.717150105761555     
  0.707010919148834       0.695185654437189       0.682379336475135     
  0.669594017061929       0.657823268896113       0.647762458454990     
  0.639710835876078       0.633580948640637       0.629099096011699     
  0.625918159376111       0.623723318208574       0.777056735917008     
  0.775877951327734       0.772841763046561       0.768277076674052     
  0.762046353284268       0.753896937705460       0.743757751092740     
  0.731932486381088       0.719126168419035       0.706340849005829     
  0.694570100840020       0.684509290398892       0.676457667819979     
  0.670327780584544       0.665845927955600       0.662664991320014     
  0.660470150152466       0.806667083630722       0.805488299041453     
  0.802452110760287       0.797887424387771       0.791656700997982     
  0.783507285419184       0.773368098806451       0.761542834094810     
  0.748736516132757       0.735951196719547       0.724180448553735     
  0.714119638112617       0.706068015533702       0.699938128298258     
  0.695456275669325       0.692275339033739       0.690080497866187     
  0.829539475470636       0.828360690881356       0.825324502600192     
  0.820759816227683       0.814529092837899       0.806379677259094     
  0.796240490646370       0.784415225934710       0.771608907972664     
  0.758823588559451       0.747052840393642       0.736992029952518     
  0.728940407373606       0.722810520138158       0.718328667509227     
  0.715147730873646       0.712952889706103       0.846636960289053     
  0.845458175699772       0.842421987418609       0.837857301046103     
  0.831626577656312       0.823477162077513       0.813337975464784     
  0.801512710753134       0.788706392791083       0.775921073377872     
  0.764150325212060       0.754089514770934       0.746037892192023     
  0.739908004956583       0.735426152327648       0.732245215692059     
  0.730050374524518       0.859106760921981       0.857927976332708     
  0.854891788051540       0.850327101679022       0.844096378289245     
  0.835946962710432       0.825807776097718       0.813982511386058     
  0.801176193424011       0.788390874010797       0.776620125844989     
  0.766559315403876       0.758507692824962       0.752377805589520     
  0.747895952960577       0.744715016324996       0.742520175157440     
  0.868039051909118       0.866860267319845       0.863824079038676     
  0.859259392666153       0.853028669276379       0.844879253697577     
  0.834740067084846       0.822914802373194       0.810108484411141     
  0.797323164997934       0.785552416832130       0.775491606391003     
  0.767439983812089       0.761310096576650       0.756828243947717     
  0.753647307312131       0.751452466144579       0.874355071222392     
  0.873176286633117       0.870140098351942       0.865575411979434     
  0.859344688589647       0.851195273010844       0.841056086398117     
  0.829230821686466       0.816424503724415       0.803639184311213     
  0.791868436145404       0.781807625704280       0.773756003125358     
  0.767626115889922       0.763144263260988       0.759963326625406     
  0.757768485457855     
  0.000000000000000E+000 -3.282172018590466E-004 -1.033620650049141E-003
 -2.198955220658941E-003 -4.476742922393904E-003 -7.979640656267073E-003
 -1.263026983295655E-002 -1.826709190868895E-002 -2.441396652989334E-002
 -3.056244072773302E-002 -3.622807327755116E-002 -4.107753596790794E-002
 -4.495244726653555E-002 -4.790767994332594E-002 -5.006842939802218E-002
 -5.160152297946802E-002 -5.266055883330620E-002  0.000000000000000E+000
 -3.282172018590466E-004 -1.033620650049141E-003 -2.198955220658941E-003
 -4.476742922393904E-003 -7.979640656267073E-003 -1.263026983295655E-002
 -1.826709190868895E-002 -2.441396652989334E-002 -3.056244072773302E-002
 -3.622807327755116E-002 -4.107753596790794E-002 -4.495244726653555E-002
 -4.790767994332594E-002 -5.006842939802218E-002 -5.160152297946802E-002
 -5.266055883330620E-002  0.000000000000000E+000 -3.282172018590466E-004
 -1.033620650049141E-003 -2.198955220658941E-003 -4.476742922393904E-003
 -7.979640656267073E-003 -1.263026983295655E-002 -1.826709190868895E-002
 -2.441396652989334E-002 -3.056244072773302E-002 -3.622807327755116E-002
 -4.107753596790794E-002 -4.495244726653555E-002 -4.790767994332594E-002
 -5.006842939802218E-002 -5.160152297946802E-002 -5.266055883330620E-002
  0.000000000000000E+000 -3.282172018590466E-004 -1.033620650049141E-003
 -2.198955220658941E-003 -4.476742922393904E-003 -7.979640656267073E-003
 -1.263026983295655E-002 -1.826709190868895E-002 -2.441396652989334E-002
 -3.056244072773302E-002 -3.622807327755116E-002 -4.107753596790794E-002
 -4.495244726653555E-002 -4.790767994332594E-002 -5.006842939802218E-002
 -5.160152297946802E-002 -5.266055883330620E-002  0.000000000000000E+000
 -3.282172018590466E-004 -1.033620650049141E-003 -2.198955220658941E-003
 -4.476742922393904E-003 -7.979640656267073E-003 -1.263026983295655E-002
 -1.826709190868895E-002 -2.441396652989334E-002 -3.056244072773302E-002
 -3.622807327755116E-002 -4.107753596790794E-002 -4.495244726653555E-002
 -4.790767994332594E-002 -5.006842939802218E-002 -5.160152297946802E-002
 -5.266055883330620E-002  0.000000000000000E+000 -3.282172018590466E-004
 -1.033620650049141E-003 -2.198955220658941E-003 -4.476742922393904E-003
 -7.979640656267073E-003 -1.263026983295655E-002 -1.826709190868895E-002
 -2.441396652989334E-002 -3.056244072773302E-002 -3.622807327755116E-002
 -4.107753596790794E-002 -4.495244726653555E-002 -4.790767994332594E-002
 -5.006842939802218E-002 -5.160152297946802E-002 -5.266055883330620E-002
  0.000000000000000E+000 -3.282172018590466E-004 -1.033620650049141E-003
 -2.198955220658941E-003 -4.476742922393904E-003 -7.979640656267073E-003
 -1.263026983295655E-002 -1.826709190868895E-002 -2.441396652989334E-002
 -3.056244072773302E-002 -3.622807327755116E-002 -4.107753596790794E-002
 -4.495244726653555E-002 -4.790767994332594E-002 -5.006842939802218E-002
 -5.160152297946802E-002 -5.266055883330620E-002  0.000000000000000E+000
 -3.282172018590466E-004 -1.033620650049141E-003 -2.198955220658941E-003
 -4.476742922393904E-003 -7.979640656267073E-003 -1.263026983295655E-002
 -1.826709190868895E-002 -2.441396652989334E-002 -3.056244072773302E-002
 -3.622807327755116E-002 -4.107753596790794E-002 -4.495244726653555E-002
 -4.790767994332594E-002 -5.006842939802218E-002 -5.160152297946802E-002
 -5.266055883330620E-002  0.000000000000000E+000 -3.282172018590466E-004
 -1.033620650049141E-003 -2.198955220658941E-003 -4.476742922393904E-003
 -7.979640656267073E-003 -1.263026983295655E-002 -1.826709190868895E-002
 -2.441396652989334E-002 -3.056244072773302E-002 -3.622807327755116E-002
 -4.107753596790794E-002 -4.495244726653555E-002 -4.790767994332594E-002
 -5.006842939802218E-002 -5.160152297946802E-002 -5.266055883330620E-002
  0.000000000000000E+000 -3.282172018590466E-004 -1.033620650049141E-003
 -2.198955220658941E-003 -4.476742922393904E-003 -7.979640656267073E-003
 -1.263026983295655E-002 -1.826709190868895E-002 -2.441396652989334E-002
 -3.056244072773302E-002 -3.622807327755116E-002 -4.107753596790794E-002
 -4.495244726653555E-002 -4.790767994332594E-002 -5.006842939802218E-002
 -5.160152297946802E-002 -5.266055883330620E-002  0.000000000000000E+000
 -3.282172018590466E-004 -1.033620650049141E-003 -2.198955220658941E-003
 -4.476742922393904E-003 -7.979640656267073E-003 -1.263026983295655E-002
 -1.826709190868895E-002 -2.441396652989334E-002 -3.056244072773302E-002
 -3.622807327755116E-002 -4.107753596790794E-002 -4.495244726653555E-002
 -4.790767994332594E-002 -5.006842939802218E-002 -5.160152297946802E-002
 -5.266055883330620E-002  0.000000000000000E+000 -3.282172018590466E-004
 -1.033620650049141E-003 -2.198955220658941E-003 -4.476742922393904E-003
 -7.979640656267073E-003 -1.263026983295655E-002 -1.826709190868895E-002
 -2.441396652989334E-002 -3.056244072773302E-002 -3.622807327755116E-002
 -4.107753596790794E-002 -4.495244726653555E-002 -4.790767994332594E-002
 -5.006842939802218E-002 -5.160152297946802E-002 -5.266055883330620E-002
  0.000000000000000E+000 -3.282172018590466E-004 -1.033620650049141E-003
 -2.198955220658941E-003 -4.476742922393904E-003 -7.979640656267073E-003
 -1.263026983295655E-002 -1.826709190868895E-002 -2.441396652989334E-002
 -3.056244072773302E-002 -3.622807327755116E-002 -4.107753596790794E-002
 -4.495244726653555E-002 -4.790767994332594E-002 -5.006842939802218E-002
 -5.160152297946802E-002 -5.266055883330620E-002  0.000000000000000E+000
 -3.282172018590466E-004 -1.033620650049141E-003 -2.198955220658941E-003
 -4.476742922393904E-003 -7.979640656267073E-003 -1.263026983295655E-002
 -1.826709190868895E-002 -2.441396652989334E-002 -3.056244072773302E-002
 -3.622807327755116E-002 -4.107753596790794E-002 -4.495244726653555E-002
 -4.790767994332594E-002 -5.006842939802218E-002 -5.160152297946802E-002
 -5.266055883330620E-002  0.000000000000000E+000 -3.282172018590466E-004
 -1.033620650049141E-003 -2.198955220658941E-003 -4.476742922393904E-003
 -7.979640656267073E-003 -1.263026983295655E-002 -1.826709190868895E-002
 -2.441396652989334E-002 -3.056244072773302E-002 -3.622807327755116E-002
 -4.107753596790794E-002 -4.495244726653555E-002 -4.790767994332594E-002
 -5.006842939802218E-002 -5.160152297946802E-002 -5.266055883330620E-002
  0.000000000000000E+000 -3.282172018590466E-004 -1.033620650049141E-003
 -2.198955220658941E-003 -4.476742922393904E-003 -7.979640656267073E-003
 -1.263026983295655E-002 -1.826709190868895E-002 -2.441396652989334E-002
 -3.056244072773302E-002 -3.622807327755116E-002 -4.107753596790794E-002
 -4.495244726653555E-002 -4.790767994332594E-002 -5.006842939802218E-002
 -5.160152297946802E-002 -5.266055883330620E-002  0.000000000000000E+000
 -3.282172018590466E-004 -1.033620650049141E-003 -2.198955220658941E-003
 -4.476742922393904E-003 -7.979640656267073E-003 -1.263026983295655E-002
 -1.826709190868895E-002 -2.441396652989334E-002 -3.056244072773302E-002
 -3.622807327755116E-002 -4.107753596790794E-002 -4.495244726653555E-002
 -4.790767994332594E-002 -5.006842939802218E-002 -5.160152297946802E-002
 -5.266055883330620E-002  0.000000000000000E+000 -3.282172018590466E-004
 -1.033620650049141E-003 -2.198955220658941E-003 -4.476742922393904E-003
 -7.979640656267073E-003 -1.263026983295655E-002 -1.826709190868895E-002
 -2.441396652989334E-002 -3.056244072773302E-002 -3.622807327755116E-002
 -4.107753596790794E-002 -4.495244726653555E-002 -4.790767994332594E-002
 -5.006842939802218E-002 -5.160152297946802E-002 -5.266055883330620E-002
  0.000000000000000E+000 -3.282172018590466E-004 -1.033620650049141E-003
 -2.198955220658941E-003 -4.476742922393904E-003 -7.979640656267073E-003
 -1.263026983295655E-002 -1.826709190868895E-002 -2.441396652989334E-002
 -3.056244072773302E-002 -3.622807327755116E-002 -4.107753596790794E-002
 -4.495244726653555E-002 -4.790767994332594E-002 -5.006842939802218E-002
 -5.160152297946802E-002 -5.266055883330620E-002  0.000000000000000E+000
 -3.282172018590466E-004 -1.033620650049141E-003 -2.198955220658941E-003
 -4.476742922393904E-003 -7.979640656267073E-003 -1.263026983295655E-002
 -1.826709190868895E-002 -2.441396652989334E-002 -3.056244072773302E-002
 -3.622807327755116E-002 -4.107753596790794E-002 -4.495244726653555E-002
 -4.790767994332594E-002 -5.006842939802218E-002 -5.160152297946802E-002
 -5.266055883330620E-002
 -0.105140939904874      -0.204172652567309      -0.234791849082546     
 -0.176178608173465      -0.104124951142325      -4.481593937065047E-002
  2.240977569733834E-003  2.714238895533216E-002  3.716622053390043E-002
  3.578417336521413E-002  2.661324512414066E-002  1.249352344274894E-002
 -1.413166395537880E-003 -1.396353152277946E-002 -2.347958058279806E-002
 -2.899964470244032E-002 -0.117919846221532      -0.234577719006032     
 -0.276333366536200      -0.207129404251247      -0.106684495958853     
 -1.477191204166577E-002  6.119564775412288E-002  0.105233812813285     
  0.125450422239063       0.126984010318568       0.115598287357953     
  9.641686927218636E-002  7.708296053841859E-002  6.006286020605550E-002
  4.772803411159848E-002  4.102912776664893E-002 -0.107562224952777     
 -0.214536134334956      -0.246421992265595      -0.161041016522633     
 -3.605027288177135E-002  8.595320433423050E-002  0.191477513196710     
  0.258638760247356       0.294054775285316       0.303672615868824     
  0.295227907655937       0.276192490767148       0.256313724249780     
  0.239003590997862       0.226712600882755       0.220221012791657     
 -7.708398324118911E-002 -0.152233523636126      -0.153508162652806     
 -3.410569253964338E-002  0.127737810803223       0.288445321718046     
  0.431701797148839       0.530922398307856       0.590559531380870     
  0.616710054909175       0.618879917216335       0.606648071410326     
  0.591354220829923       0.576974590450485       0.566399179805740     
  0.560846436169822      -2.242076634223452E-002 -3.962559463278296E-002
  1.477704396440039E-002  0.193542240922692       0.416039222461047     
  0.636231679300189       0.835394515434181       0.983057666353022     
   1.08182177439066        1.13760380563816        1.16121337450909     
   1.16379602878552        1.15820574469450        1.14964922984377     
   1.14238467473787        1.13850284369269       6.349073887836799E-002
  0.137848010698302       0.280231858652102       0.551911660247360     
  0.868902342768033        1.18101954400953        1.46582565219785     
   1.68809097098138        1.84839718097310        1.95209750260581     
   2.01089293195871        2.03753404046975        2.04737046395161     
   2.04806960060546        2.04604744559019        2.04465494116253     
  0.188200093557808       0.395816615990047       0.666143456244766     
   1.07228826055640        1.52634456547705        1.97239040316363     
   2.38242002608033        2.71433773607957        2.96550128930967     
   3.13999400146986        3.25044271769528        3.31211260405813     
   3.34439480840195        3.35860584262526        3.36408767205862     
   3.36609279596215       0.355567023551677       0.742250385845033     
   1.18425102138567        1.77011070297105        2.40765358854767     
   3.03368158392655        3.61262562473864        4.09303751297339     
   4.46741389031773        4.73778745718194        4.91805344243003     
   5.02713973398465        5.08990698601084        5.12239051450211     
   5.13781772934694        5.14419742698727       0.559824036411304     
   1.16513688851928        1.81642379746788        2.62069391241812     
   3.48129240110502        4.32649322697247        5.11153895377361     
   5.77364662680840        6.29917652628128        6.68753040978619     
   6.95410702004706        7.12219787135111        7.22304436105389     
   7.27826865642256        7.30593820617754        7.31762883575156     
  0.780816329185032        1.62261741352758        2.50005760607126     
   3.53997425658068        4.64102634511234        5.72241155743191     
   6.72966821035921        7.58815069814713        8.27786838347920     
   8.79540769392016        9.15749345781698        9.39161660234768     
   9.53543260867802        9.61641055949989        9.65794024971045     
   9.67562564092022       0.985789409497448        2.04666860563124     
   3.13354576736624        4.39182249099958        5.71504884101337     
   7.01379996277071        8.22513023618473        9.26428255319184     
   10.1064250252595        10.7458366582506        11.1998871006020     
   11.4989579714240        11.6858630736208        11.7930787961930     
   11.8488947522751        11.8728018983888        1.14031433792958     
   2.36569536186796        3.60975447920127        5.03236224161199     
   6.52111052465002        7.97929174407528        9.33848469720919     
   10.5081626520602        11.4624229003756        12.1949281763559     
   12.7226763046404        13.0763328073951        13.3010605987786     
   13.4321862483996        13.5014152704515        13.5312855803347     
   1.22246172027364        2.53390100466074        3.85963910310341     
   5.36786184681269        6.93882769329891        8.47016005589184     
   9.89199261211547        11.1144039610982        12.1165628883169     
   12.8950737781351        13.4659083538583        13.8563279881069     