 Title = "Wing and Wake"
 VARIABLES = "X" "Y" "Z" "GAM" "skew"
 Zone I=   17 J=   20 K=1  T="Blade 01"
 DATAPACKING=BLOCK
 VARLOCATION=([4]=CELLCENTERED,[5]=CELLCENTERED)
 -0.221663389895091      -0.222945346372702      -0.226247273857759     
 -0.231211479631009      -0.237987540569033      -0.246850225223241     
 -0.257876833540093      -0.270737092178083      -0.284664269726171     
 -0.298568610849389      -0.311369581437883      -0.322310953790683     
 -0.331067286214963      -0.337733685419691      -0.342607807512597     
 -0.346067152300402      -0.348454094645647      -0.227471095821216     
 -0.228753052298828      -0.232054979783886      -0.237019185557134     
 -0.243795246495157      -0.252657931149366      -0.263684539466220     
 -0.276544798104208      -0.290471975652298      -0.304376316775515     
 -0.317177287364008      -0.328118659716810      -0.336874992141090     
 -0.343541391345819      -0.348415513438719      -0.351874858226529     
 -0.354261800571773      -0.235684515813591      -0.236966472291202     
 -0.240268399776258      -0.245232605549510      -0.252008666487532     
 -0.260871351141738      -0.271897959458593      -0.284758218096581     
 -0.298685395644672      -0.312589736767890      -0.325390707356383     
 -0.336332079709184      -0.345088412133463      -0.351754811338191     
 -0.356628933431095      -0.360088278218903      -0.362475220564149     
 -0.247150746589875      -0.248432703067486      -0.251734630552544     
 -0.256698836325792      -0.263474897263817      -0.272337581918025     
 -0.283364190234878      -0.296224448872866      -0.310151626420956     
 -0.324055967544172      -0.336856938132667      -0.347798310485469     
 -0.356554642909748      -0.363221042114477      -0.368095164207379     
 -0.371554508995186      -0.373941451340432      -0.262872225416434     
 -0.264154181894046      -0.267456109379103      -0.272420315152352     
 -0.279196376090377      -0.288059060744585      -0.299085669061437     
 -0.311945927699425      -0.325873105247517      -0.339777446370733     
 -0.352578416959226      -0.363519789312027      -0.372276121736308     
 -0.378942520941037      -0.383816643033939      -0.387275987821747     
 -0.389662930166991      -0.283903846607672      -0.285185803085283     
 -0.288487730570339      -0.293451936343590      -0.300227997281611     
 -0.309090681935822      -0.320117290252672      -0.332977548890663     
 -0.346904726438751      -0.360809067561970      -0.373610038150464     
 -0.384551410503265      -0.393307742927544      -0.399974142132271     
 -0.404848264225176      -0.408307609012983      -0.410694551358228     
 -0.311131152820971      -0.312413109298581      -0.315715036783636     
 -0.320679242556887      -0.327455303494911      -0.336317988149119     
 -0.347344596465971      -0.360204855103960      -0.374132032652049     
 -0.388036373775266      -0.400837344363760      -0.411778716716563     
 -0.420535049140842      -0.427201448345573      -0.432075570438475     
 -0.435534915226279      -0.437921857571526      -0.344920598840939     
 -0.346202555318552      -0.349504482803610      -0.354468688576858     
 -0.361244749514883      -0.370107434169091      -0.381134042485939     
 -0.393994301123931      -0.407921478672020      -0.421825819795238     
 -0.434626790383732      -0.445568162736533      -0.454324495160813     
 -0.460990894365541      -0.465865016458444      -0.469324361246251     
 -0.471711303591497      -0.384721419506449      -0.386003375984061     
 -0.389305303469117      -0.394269509242366      -0.401045570180387     
 -0.409908254834597      -0.420934863151450      -0.433795121789439     
 -0.447722299337530      -0.461626640460744      -0.474427611049241     
 -0.485368983402041      -0.494125315826322      -0.500791715031050     
 -0.505665837123952      -0.509125181911761      -0.511512124257003     
 -0.428820063039284      -0.430102019516895      -0.433403947001953     
 -0.438368152775200      -0.445144213713222      -0.454006898367433     
 -0.465033506684287      -0.477893765322275      -0.491820942870362     
 -0.505725283993577      -0.518526254582076      -0.529467626934875     
 -0.538223959359156      -0.544890358563885      -0.549764480656789     
 -0.553223825444594      -0.555610767789839      -0.474487341524719     
 -0.475769298002330      -0.479071225487387      -0.484035431260635     
 -0.490811492198658      -0.499674176852868      -0.510700785169723     
 -0.523561043807711      -0.537488221355798      -0.551392562479018     
 -0.564193533067509      -0.575134905420314      -0.583891237844590     
 -0.590557637049322      -0.595431759142226      -0.598891103930028     
 -0.601278046275275      -0.518585985057556      -0.519867941535167     
 -0.523169869020222      -0.528134074793472      -0.534910135731497     
 -0.543772820385702      -0.554799428702557      -0.567659687340544     
 -0.581586864888636      -0.595491206011854      -0.608292176600347     
 -0.619233548953148      -0.627989881377428      -0.634656280582157     
 -0.639530402675061      -0.642989747462869      -0.645376689808113     
 -0.558386805723064      -0.559668762200674      -0.562970689685731     
 -0.567934895458980      -0.574710956397007      -0.583573641051214     
 -0.594600249368066      -0.607460508006054      -0.621387685554145     
 -0.635292026677362      -0.648092997265854      -0.659034369618655     
 -0.667790702042934      -0.674457101247667      -0.679331223340567     
 -0.682790568128373      -0.685177510473621      -0.592176251743034     
 -0.593458208220644      -0.596760135705700      -0.601724341478953     
 -0.608500402416976      -0.617363087071184      -0.628389695388038     
 -0.641249954026026      -0.655177131574116      -0.669081472697334     
 -0.681882443285826      -0.692823815638627      -0.701580148062906     
 -0.708246547267637      -0.713120669360540      -0.716580014148345     
 -0.718966956493589      -0.619403557956333      -0.620685514433942     
 -0.623987441919000      -0.628951647692248      -0.635727708630271     
 -0.644590393284483      -0.655617001601333      -0.668477260239322     
 -0.682404437787416      -0.696308778910629      -0.709109749499123     
 -0.720051121851924      -0.728807454276205      -0.735473853480934     
 -0.740347975573835      -0.743807320361643      -0.746194262706888     
 -0.640435179147569      -0.641717135625179      -0.645019063110236     
 -0.649983268883483      -0.656759329821508      -0.665622014475721     
 -0.676648622792572      -0.689508881430556      -0.703436058978646     
 -0.717340400101863      -0.730141370690361      -0.741082743043159     
 -0.749839075467440      -0.756505474672168      -0.761379596765071     
 -0.764838941552881      -0.767225883898128      -0.656156657974129     
 -0.657438614451737      -0.660740541936798      -0.665704747710044     
 -0.672480808648070      -0.681343493302278      -0.692370101619132     
 -0.705230360257118      -0.719157537805212      -0.733061878928427     
 -0.745862849516920      -0.756804221869721      -0.765560554293997     
 -0.772226953498730      -0.777101075591633      -0.780560420379436     
 -0.782947362724685      -0.667622888750411      -0.668904845228028     
 -0.672206772713080      -0.677170978486328      -0.683947039424356     
 -0.692809724078557      -0.703836332395415      -0.716696591033401     
 -0.730623768581496      -0.744528109704710      -0.757329080293203     
 -0.768270452646003      -0.777026785070287      -0.783693184275018     
 -0.788567306367917      -0.792026651155725      -0.794413593500967     
 -0.675836308742790      -0.677118265220399      -0.680420192705459     
 -0.685384398478707      -0.692160459416729      -0.701023144070940     
 -0.712049752387789      -0.724910011025777      -0.738837188573867     
 -0.752741529697082      -0.765542500285576      -0.776483872638373     
 -0.785240205062656      -0.791906604267387      -0.796780726360291     
 -0.800240071148100      -0.802627013493345      -0.681644014668916     
 -0.682925971146523      -0.686227898631581      -0.691192104404829     
 -0.697968165342853      -0.706830849997058      -0.717857458313910     
 -0.730717716951901      -0.744644894499989      -0.758549235623211     
 -0.771350206211705      -0.782291578564503      -0.791047910988783     
 -0.797714310193514      -0.802588432286418      -0.806047777074223     
 -0.808434719419470     
 -0.374115123339686      -0.372936338750408      -0.369900150469242     
 -0.365335464096731      -0.359104740706947      -0.350955325128140     
 -0.340816138515415      -0.328990873803766      -0.316184555841715     
 -0.303399236428509      -0.291628488262696      -0.281567677821573     
 -0.273516055242660      -0.267386168007220      -0.262904315378283     
 -0.259723378742699      -0.257528537575151      -0.380431142652959     
 -0.379252358063684      -0.376216169782516      -0.371651483410004     
 -0.365420760020219      -0.357271344441413      -0.347132157828690     
 -0.335306893117040      -0.322500575154989      -0.309715255741783     
 -0.297944507575970      -0.287883697134848      -0.279832074555933     
 -0.273702187320493      -0.269220334691556      -0.266039398055973     
 -0.263844556888424      -0.389363433640096      -0.388184649050819     
 -0.385148460769650      -0.380583774397141      -0.374353051007355     
 -0.366203635428549      -0.356064448815825      -0.344239184104175     
 -0.331432866142124      -0.318647546728918      -0.306876798563106     
 -0.296815988121985      -0.288764365543070      -0.282634478307629     
 -0.278152625678693      -0.274971689043107      -0.272776847875560     
 -0.401833234273023      -0.400654449683747      -0.397618261402579     
 -0.393053575030069      -0.386822851640284      -0.378673436061477     
 -0.368534249448755      -0.356708984737106      -0.343902666775053     
 -0.331117347361846      -0.319346599196035      -0.309285788754911     
 -0.301234166175998      -0.295104278940558      -0.290622426311620     
 -0.287441489676036      -0.285246648508488      -0.418930719091443     
 -0.417751934502166      -0.414715746220999      -0.410151059848488     
 -0.403920336458702      -0.395770920879898      -0.385631734267172     
 -0.373806469555523      -0.361000151593472      -0.348214832180265     
 -0.336444084014452      -0.326383273573330      -0.318331650994416     
 -0.312201763758976      -0.307719911130040      -0.304538974494454     
 -0.302344133326907      -0.441803110931353      -0.440624326342077     
 -0.437588138060907      -0.433023451688397      -0.426792728298610     
 -0.418643312719806      -0.408504126107081      -0.396678861395431     
 -0.383872543433379      -0.371087224020174      -0.359316475854363     
 -0.349255665413240      -0.341204042834325      -0.335074155598884     
 -0.330592302969948      -0.327411366334363      -0.325216525166817     
 -0.471413458645071      -0.470234674055796      -0.467198485774625     
 -0.462633799402115      -0.456403076012331      -0.448253660433525     
 -0.438114473820798      -0.426289209109152      -0.413482891147099     
 -0.400697571733891      -0.388926823568079      -0.378866013126959     
 -0.370814390548044      -0.364684503312605      -0.360202650683669     
 -0.357021714048082      -0.354826872880534      -0.508160290588974     
 -0.506981505999700      -0.503945317718529      -0.499380631346020     
 -0.493149907956235      -0.485000492377428      -0.474861305764704     
 -0.463036041053057      -0.450229723091000      -0.437444403677796     
 -0.425673655511985      -0.415612845070863      -0.407561222491949     
 -0.401431335256506      -0.396949482627572      -0.393768545991986     
 -0.391573704824439      -0.551444636457221      -0.550265851867948     
 -0.547229663586778      -0.542664977214267      -0.536434253824482     
 -0.528284838245675      -0.518145651632950      -0.506320386921302     
 -0.493514068959250      -0.480728749546044      -0.468958001380233     
 -0.458897190939109      -0.450845568360196      -0.444715681124755     
 -0.440233828495817      -0.437052891860236      -0.434858050692687     
 -0.599402967644348      -0.598224183055072      -0.595187994773903     
 -0.590623308401392      -0.584392585011606      -0.576243169432798     
 -0.566103982820077      -0.554278718108425      -0.541472400146373     
 -0.528687080733168      -0.516916332567356      -0.506855522126231     
 -0.498803899547320      -0.492674012311879      -0.488192159682944     
 -0.485011223047359      -0.482816381879812      -0.649067226917728     
 -0.647888442328452      -0.644852254047283      -0.640287567674775     
 -0.634056844284987      -0.625907428706184      -0.615768242093458     
 -0.603942977381813      -0.591136659419756      -0.578351340006551     
 -0.566580591840738      -0.556519781399616      -0.548468158820701     
 -0.542338271585264      -0.537856418956324      -0.534675482320739     
 -0.532480641153192      -0.697025558104854      -0.695846773515579     
 -0.692810585234409      -0.688245898861899      -0.682015175472112     
 -0.673865759893304      -0.663726573280583      -0.651901308568931     
 -0.639094990606882      -0.626309671193676      -0.614538923027863     
 -0.604478112586742      -0.596426490007826      -0.590296602772389     
 -0.585814750143451      -0.582633813507866      -0.580438972340319     
 -0.740309903973100      -0.739131119383825      -0.736094931102656     
 -0.731530244730146      -0.725299521340360      -0.717150105761554     
 -0.707010919148832      -0.695185654437184      -0.682379336475131     
 -0.669594017061927      -0.657823268896110      -0.647762458454988     
 -0.639710835876076      -0.633580948640634      -0.629099096011697     
 -0.625918159376111      -0.623723318208568      -0.777056735917005     
 -0.775877951327731      -0.772841763046559      -0.768277076674053     
 -0.762046353284267      -0.753896937705460      -0.743757751092736     
 -0.731932486381086      -0.719126168419035      -0.706340849005827     
 -0.694570100840016      -0.684509290398892      -0.676457667819980     
 -0.670327780584541      -0.665845927955600      -0.662664991320015     
 -0.660470150152467      -0.806667083630724      -0.805488299041449     
 -0.802452110760281      -0.797887424387767      -0.791656700997982     
 -0.783507285419178      -0.773368098806452      -0.761542834094805     
 -0.748736516132755      -0.735951196719546      -0.724180448553733     
 -0.714119638112613      -0.706068015533698      -0.699938128298257     
 -0.695456275669320      -0.692275339033737      -0.690080497866187     
 -0.829539475470633      -0.828360690881357      -0.825324502600187     
 -0.820759816227678      -0.814529092837892      -0.806379677259089     
 -0.796240490646363      -0.784415225934710      -0.771608907972661     
 -0.758823588559451      -0.747052840393643      -0.736992029952521     
 -0.728940407373606      -0.722810520138163      -0.718328667509228     
 -0.715147730873644      -0.712952889706101      -0.846636960289052     
 -0.845458175699773      -0.842421987418608      -0.837857301046095     
 -0.831626577656311      -0.823477162077506      -0.813337975464783     
 -0.801512710753133      -0.788706392791081      -0.775921073377875     
 -0.764150325212060      -0.754089514770938      -0.746037892192023     
 -0.739908004956583      -0.735426152327648      -0.732245215692061     
 -0.730050374524515      -0.859106760921979      -0.857927976332705     
 -0.854891788051533      -0.850327101679022      -0.844096378289241     
 -0.835946962710432      -0.825807776097711      -0.813982511386058     
 -0.801176193424010      -0.788390874010801      -0.776620125844988     
 -0.766559315403868      -0.758507692824957      -0.752377805589517     
 -0.747895952960575      -0.744715016324994      -0.742520175157443     
 -0.868039051909117      -0.866860267319840      -0.863824079038676     
 -0.859259392666159      -0.853028669276376      -0.844879253697574     
 -0.834740067084846      -0.822914802373193      -0.810108484411143     
 -0.797323164997935      -0.785552416832123      -0.775491606391003     
 -0.767439983812087      -0.761310096576650      -0.756828243947712     
 -0.753647307312128      -0.751452466144579      -0.874355071222391     
 -0.873176286633114      -0.870140098351944      -0.865575411979432     
 -0.859344688589650      -0.851195273010841      -0.841056086398117     
 -0.829230821686469      -0.816424503724415      -0.803639184311213     
 -0.791868436145401      -0.781807625704277      -0.773756003125360     
 -0.767626115889923      -0.763144263260987      -0.759963326625402     
 -0.757768485457853     
  0.000000000000000E+000 -3.282172018590466E-004 -1.033620650049141E-003
 -2.198955220658941E-003 -4.476742922393904E-003 -7.979640656267073E-003
 -1.263026983295655E-002 -1.826709190868895E-002 -2.441396652989334E-002
 -3.056244072773302E-002 -3.622807327755116E-002 -4.107753596790794E-002
 -4.495244726653555E-002 -4.790767994332594E-002 -5.006842939802218E-002
 -5.160152297946802E-002 -5.266055883330620E-002  0.000000000000000E+000
 -3.282172018590466E-004 -1.033620650049141E-003 -2.198955220658941E-003
 -4.476742922393904E-003 -7.979640656267073E-003 -1.263026983295655E-002
 -1.826709190868895E-002 -2.441396652989334E-002 -3.056244072773302E-002
 -3.622807327755116E-002 -4.107753596790794E-002 -4.495244726653555E-002
 -4.790767994332594E-002 -5.006842939802218E-002 -5.160152297946802E-002
 -5.266055883330620E-002  0.000000000000000E+000 -3.282172018590466E-004
 -1.033620650049141E-003 -2.198955220658941E-003 -4.476742922393904E-003
 -7.979640656267073E-003 -1.263026983295655E-002 -1.826709190868895E-002
 -2.441396652989334E-002 -3.056244072773302E-002 -3.622807327755116E-002
 -4.107753596790794E-002 -4.495244726653555E-002 -4.790767994332594E-002
 -5.006842939802218E-002 -5.160152297946802E-002 -5.266055883330620E-002
  0.000000000000000E+000 -3.282172018590466E-004 -1.033620650049141E-003
 -2.198955220658941E-003 -4.476742922393904E-003 -7.979640656267073E-003
 -1.263026983295655E-002 -1.826709190868895E-002 -2.441396652989334E-002
 -3.056244072773302E-002 -3.622807327755116E-002 -4.107753596790794E-002
 -4.495244726653555E-002 -4.790767994332594E-002 -5.006842939802218E-002
 -5.160152297946802E-002 -5.266055883330620E-002  0.000000000000000E+000
 -3.282172018590466E-004 -1.033620650049141E-003 -2.198955220658941E-003
 -4.476742922393904E-003 -7.979640656267073E-003 -1.263026983295655E-002
 -1.826709190868895E-002 -2.441396652989334E-002 -3.056244072773302E-002
 -3.622807327755116E-002 -4.107753596790794E-002 -4.495244726653555E-002
 -4.790767994332594E-002 -5.006842939802218E-002 -5.160152297946802E-002
 -5.266055883330620E-002  0.000000000000000E+000 -3.282172018590466E-004
 -1.033620650049141E-003 -2.198955220658941E-003 -4.476742922393904E-003
 -7.979640656267073E-003 -1.263026983295655E-002 -1.826709190868895E-002
 -2.441396652989334E-002 -3.056244072773302E-002 -3.622807327755116E-002
 -4.107753596790794E-002 -4.495244726653555E-002 -4.790767994332594E-002
 -5.006842939802218E-002 -5.160152297946802E-002 -5.266055883330620E-002
  0.000000000000000E+000 -3.282172018590466E-004 -1.033620650049141E-003
 -2.198955220658941E-003 -4.476742922393904E-003 -7.979640656267073E-003
 -1.263026983295655E-002 -1.826709190868895E-002 -2.441396652989334E-002
 -3.056244072773302E-002 -3.622807327755116E-002 -4.107753596790794E-002
 -4.495244726653555E-002 -4.790767994332594E-002 -5.006842939802218E-002
 -5.160152297946802E-002 -5.266055883330620E-002  0.000000000000000E+000
 -3.282172018590466E-004 -1.033620650049141E-003 -2.198955220658941E-003
 -4.476742922393904E-003 -7.979640656267073E-003 -1.263026983295655E-002
 -1.826709190868895E-002 -2.441396652989334E-002 -3.056244072773302E-002
 -3.622807327755116E-002 -4.107753596790794E-002 -4.495244726653555E-002
 -4.790767994332594E-002 -5.006842939802218E-002 -5.160152297946802E-002
 -5.266055883330620E-002  0.000000000000000E+000 -3.282172018590466E-004
 -1.033620650049141E-003 -2.198955220658941E-003 -4.476742922393904E-003
 -7.979640656267073E-003 -1.263026983295655E-002 -1.826709190868895E-002
 -2.441396652989334E-002 -3.056244072773302E-002 -3.622807327755116E-002
 -4.107753596790794E-002 -4.495244726653555E-002 -4.790767994332594E-002
 -5.006842939802218E-002 -5.160152297946802E-002 -5.266055883330620E-002
  0.000000000000000E+000 -3.282172018590466E-004 -1.033620650049141E-003
 -2.198955220658941E-003 -4.476742922393904E-003 -7.979640656267073E-003
 -1.263026983295655E-002 -1.826709190868895E-002 -2.441396652989334E-002
 -3.056244072773302E-002 -3.622807327755116E-002 -4.107753596790794E-002
 -4.495244726653555E-002 -4.790767994332594E-002 -5.006842939802218E-002
 -5.160152297946802E-002 -5.266055883330620E-002  0.000000000000000E+000
 -3.282172018590466E-004 -1.033620650049141E-003 -2.198955220658941E-003
 -4.476742922393904E-003 -7.979640656267073E-003 -1.263026983295655E-002
 -1.826709190868895E-002 -2.441396652989334E-002 -3.056244072773302E-002
 -3.622807327755116E-002 -4.107753596790794E-002 -4.495244726653555E-002
 -4.790767994332594E-002 -5.006842939802218E-002 -5.160152297946802E-002
 -5.266055883330620E-002  0.000000000000000E+000 -3.282172018590466E-004
 -1.033620650049141E-003 -2.198955220658941E-003 -4.476742922393904E-003
 -7.979640656267073E-003 -1.263026983295655E-002 -1.826709190868895E-002
 -2.441396652989334E-002 -3.056244072773302E-002 -3.622807327755116E-002
 -4.107753596790794E-002 -4.495244726653555E-002 -4.790767994332594E-002
 -5.006842939802218E-002 -5.160152297946802E-002 -5.266055883330620E-002
  0.000000000000000E+000 -3.282172018590466E-004 -1.033620650049141E-003
 -2.198955220658941E-003 -4.476742922393904E-003 -7.979640656267073E-003
 -1.263026983295655E-002 -1.826709190868895E-002 -2.441396652989334E-002
 -3.056244072773302E-002 -3.622807327755116E-002 -4.107753596790794E-002
 -4.495244726653555E-002 -4.790767994332594E-002 -5.006842939802218E-002
 -5.160152297946802E-002 -5.266055883330620E-002  0.000000000000000E+000
 -3.282172018590466E-004 -1.033620650049141E-003 -2.198955220658941E-003
 -4.476742922393904E-003 -7.979640656267073E-003 -1.263026983295655E-002
 -1.826709190868895E-002 -2.441396652989334E-002 -3.056244072773302E-002
 -3.622807327755116E-002 -4.107753596790794E-002 -4.495244726653555E-002
 -4.790767994332594E-002 -5.006842939802218E-002 -5.160152297946802E-002
 -5.266055883330620E-002  0.000000000000000E+000 -3.282172018590466E-004
 -1.033620650049141E-003 -2.198955220658941E-003 -4.476742922393904E-003
 -7.979640656267073E-003 -1.263026983295655E-002 -1.826709190868895E-002
 -2.441396652989334E-002 -3.056244072773302E-002 -3.622807327755116E-002
 -4.107753596790794E-002 -4.495244726653555E-002 -4.790767994332594E-002
 -5.006842939802218E-002 -5.160152297946802E-002 -5.266055883330620E-002
  0.000000000000000E+000 -3.282172018590466E-004 -1.033620650049141E-003
 -2.198955220658941E-003 -4.476742922393904E-003 -7.979640656267073E-003
 -1.263026983295655E-002 -1.826709190868895E-002 -2.441396652989334E-002
 -3.056244072773302E-002 -3.622807327755116E-002 -4.107753596790794E-002
 -4.495244726653555E-002 -4.790767994332594E-002 -5.006842939802218E-002
 -5.160152297946802E-002 -5.266055883330620E-002  0.000000000000000E+000
 -3.282172018590466E-004 -1.033620650049141E-003 -2.198955220658941E-003
 -4.476742922393904E-003 -7.979640656267073E-003 -1.263026983295655E-002
 -1.826709190868895E-002 -2.441396652989334E-002 -3.056244072773302E-002
 -3.622807327755116E-002 -4.107753596790794E-002 -4.495244726653555E-002
 -4.790767994332594E-002 -5.006842939802218E-002 -5.160152297946802E-002
 -5.266055883330620E-002  0.000000000000000E+000 -3.282172018590466E-004
 -1.033620650049141E-003 -2.198955220658941E-003 -4.476742922393904E-003
 -7.979640656267073E-003 -1.263026983295655E-002 -1.826709190868895E-002
 -2.441396652989334E-002 -3.056244072773302E-002 -3.622807327755116E-002
 -4.107753596790794E-002 -4.495244726653555E-002 -4.790767994332594E-002
 -5.006842939802218E-002 -5.160152297946802E-002 -5.266055883330620E-002
  0.000000000000000E+000 -3.282172018590466E-004 -1.033620650049141E-003
 -2.198955220658941E-003 -4.476742922393904E-003 -7.979640656267073E-003
 -1.263026983295655E-002 -1.826709190868895E-002 -2.441396652989334E-002
 -3.056244072773302E-002 -3.622807327755116E-002 -4.107753596790794E-002
 -4.495244726653555E-002 -4.790767994332594E-002 -5.006842939802218E-002
 -5.160152297946802E-002 -5.266055883330620E-002  0.000000000000000E+000
 -3.282172018590466E-004 -1.033620650049141E-003 -2.198955220658941E-003
 -4.476742922393904E-003 -7.979640656267073E-003 -1.263026983295655E-002
 -1.826709190868895E-002 -2.441396652989334E-002 -3.056244072773302E-002
 -3.622807327755116E-002 -4.107753596790794E-002 -4.495244726653555E-002
 -4.790767994332594E-002 -5.006842939802218E-002 -5.160152297946802E-002
 -5.266055883330620E-002
 -0.114735063191634      -0.223731908562834      -0.263477806695051     
 -0.214243762212501      -0.152154731597750      -0.103268973883080     
 -6.662123051151794E-002 -5.132911437070814E-002 -4.935097140478675E-002
 -5.667610610079050E-002 -6.955876846105005E-002 -8.543082326475994E-002
 -9.968996488181364E-002 -0.111828003440056      -0.120784417819985     
 -0.126020606655327      -0.133506221439212      -0.266955685587378     
 -0.324612855872784      -0.271677637252737      -0.188302892689646     
 -0.114045026845631      -5.557405974725661E-002 -2.767090026278038E-002
 -2.104714891719535E-002 -2.976844341069337E-002 -4.795663467298506E-002
 -7.103649032603222E-002 -9.234821158322835E-002 -0.110364453663622     
 -0.123270701383315      -0.130272767781787      -0.130345878281848     
 -0.261944163582503      -0.317227306148222      -0.255745024250407     
 -0.155733922424299      -5.939917078848804E-002  2.083047574139153E-002
  6.466737568721038E-002  8.027237787037896E-002  7.458126602659922E-002
  5.540025344722393E-002  2.946265555642541E-002  5.391791110385760E-003
 -1.431476314830395E-002 -2.781378943911782E-002 -3.477706953968485E-002
 -0.109390858790431      -0.219383730232363      -0.253588411228629     
 -0.167584620307093      -4.048904887699611E-002  8.466299175596181E-002
  0.193003068356513       0.259989854074364       0.292010078670952     
  0.296377750585478       0.282732345239715       0.259912258881993     
  0.238072588410545       0.220058023338220       0.207747683103037     
  0.201532584182352      -6.746906336828129E-002 -0.133127611263375     
 -0.124220285451975       8.804512753697317E-003  0.184022641358516     
  0.356062429856849       0.508069551297772       0.612145200059159     
  0.673319823290962       0.699083486476290       0.700569878527419     
  0.688188991664741       0.673347412161750       0.659655200452066     
  0.649881451118088       0.644986241012641       2.068448196160162E-003
  1.050548458935164E-002  9.133028222337945E-002  0.301605165387812     
  0.555553874384556       0.803798603843471        1.02625960257511     
   1.19089563536604        1.30133092684630        1.36494725046573     
   1.39397061088569        1.40030744123040        1.39744006489616     
   1.39090960093543        1.38519984627481        1.38225026850755     
  0.107838300338310       0.229335916766162       0.419551037491185     
  0.746260799069439        1.11922357241464        1.48350523167788     
   1.81400365944648        2.07247662493173        2.25997464603060     
   2.38306063027514        2.45503136616985        2.49013484856920     
   2.50547054739072        2.50976460070833        2.51002623934352     
   2.50978051590308       0.257792668664442       0.539775333552687     
  0.884592677175945        1.37444636589426        1.91433351877679     
   2.44222627381582        2.92596276061823        3.31852919274983     
   3.61666334168504        3.82522650711710        3.95886664815961     
   4.03535259264388        4.07696472284771        4.09682874528801     
   4.10550193460347        4.10894829046028       0.453805590865933     
  0.945582002526999        1.49152349718419        2.19183315541505     
   2.94676695764487        3.68584935797077        4.36798412940534     
   4.93511450511524        5.37812454046093        5.69941193344383     
   5.91515673723961        6.04743934742740        6.12483665388973     
   6.16595129059806        6.18602146660966        6.19440870129427     
  0.683224422671570        1.42039021099787        2.20054313542331     
   3.14420520650820        4.14708890326555        5.12950471823260     
   6.04043579779218        6.80977268681569        7.42193858604185     
   7.87646731474192        8.19085847844289        8.39143762780719     
   8.51332073173483        8.58111851039267        8.61555792748545     
   8.63016961681003       0.913391623055813        1.89639898429158     
   2.91040963665470        4.09595395024625        5.34419174015818     
   6.56644313826371        7.70249032495994        8.67141401971420     
   9.45227982589997        10.0420659686428        10.4589073281295     
   10.7321811709032        10.9024909689246        10.9998817661770     
   11.0504727310111        11.0721334044979        1.10081442608226     
   2.28331853468079        3.48650849470528        4.86727020607729     
   6.31157988231932        7.72302126336558        9.03494453808558     
   10.1596838674836        11.0744545233430        11.7752119434983     
   12.2796923724914        12.6178180072016        12.8330326373770     
   12.9588127556478        13.0253255154951        13.0540646132889     
   1.21273958171600        2.51299245248347        3.82685537368401     
   5.32124174902985        6.87553614855177        8.38728719689657     
   9.78755902646520        10.9883973330696        11.9713195852333     
   12.7347505312514        13.2952820184126        13.6796557460398     