 Title = "Wing and Wake"
 VARIABLES = "X" "Y" "Z" "GAM" "skew"
 Zone I=   17 J=   20 K=1  T="Blade 01"
 DATAPACKING=BLOCK
 VARLOCATION=([4]=CELLCENTERED,[5]=CELLCENTERED)
 -0.221663389895097      -0.222945346372708      -0.226247273857764     
 -0.231211479631014      -0.237987540569038      -0.246850225223248     
 -0.257876833540094      -0.270737092178090      -0.284664269726175     
 -0.298568610849395      -0.311369581437889      -0.322310953790689     
 -0.331067286214967      -0.337733685419691      -0.342607807512604     
 -0.346067152300409      -0.348454094645654      -0.227471095821222     
 -0.228753052298829      -0.232054979783891      -0.237019185557140     
 -0.243795246495164      -0.252657931149372      -0.263684539466225     
 -0.276544798104208      -0.290471975652304      -0.304376316775522     
 -0.317177287364014      -0.328118659716817      -0.336874992141097     
 -0.343541391345824      -0.348415513438719      -0.351874858226536     
 -0.354261800571779      -0.235684515813597      -0.236966472291208     
 -0.240268399776265      -0.245232605549510      -0.252008666487539     
 -0.260871351141738      -0.271897959458601      -0.284758218096587     
 -0.298685395644678      -0.312589736767896      -0.325390707356390     
 -0.336332079709190      -0.345088412133469      -0.351754811338191     
 -0.356628933431101      -0.360088278218908      -0.362475220564155     
 -0.247150746589880      -0.248432703067493      -0.251734630552552     
 -0.256698836325798      -0.263474897263821      -0.272337581918031     
 -0.283364190234885      -0.296224448872873      -0.310151626420963     
 -0.324055967544172      -0.336856938132674      -0.347798310485472     
 -0.356554642909755      -0.363221042114483      -0.368095164207384     
 -0.371554508995194      -0.373941451340438      -0.262872225416441     
 -0.264154181894054      -0.267456109379110      -0.272420315152359     
 -0.279196376090384      -0.288059060744592      -0.299085669061442     
 -0.311945927699433      -0.325873105247525      -0.339777446370740     
 -0.352578416959234      -0.363519789312027      -0.372276121736315     
 -0.378942520941044      -0.383816643033947      -0.387275987821753     
 -0.389662930166999      -0.283903846607679      -0.285185803085290     
 -0.288487730570341      -0.293451936343594      -0.300227997281619     
 -0.309090681935829      -0.320117290252672      -0.332977548890664     
 -0.346904726438760      -0.360809067561975      -0.373610038150474     
 -0.384551410503274      -0.393307742927552      -0.399974142132271     
 -0.404848264225184      -0.408307609012992      -0.410694551358234     
 -0.311131152820982      -0.312413109298585      -0.315715036783636     
 -0.320679242556891      -0.327455303494920      -0.336317988149126     
 -0.347344596465979      -0.360204855103971      -0.374132032652054     
 -0.388036373775271      -0.400837344363770      -0.411778716716571     
 -0.420535049140850      -0.427201448345573      -0.432075570438479     
 -0.435534915226287      -0.437921857571533      -0.344920598840948     
 -0.346202555318561      -0.349504482803615      -0.354468688576865     
 -0.361244749514893      -0.370107434169095      -0.381134042485939     
 -0.393994301123938      -0.407921478672029      -0.421825819795243     
 -0.434626790383743      -0.445568162736540      -0.454324495160823     
 -0.460990894365548      -0.465865016458456      -0.469324361246262     
 -0.471711303591508      -0.384721419506456      -0.386003375984074     
 -0.389305303469128      -0.394269509242370      -0.401045570180393     
 -0.409908254834610      -0.420934863151461      -0.433795121789448     
 -0.447722299337542      -0.461626640460757      -0.474427611049253     
 -0.485368983402054      -0.494125315826336      -0.500791715031057     
 -0.505665837123959      -0.509125181911774      -0.511512124257003     
 -0.428820063039295      -0.430102019516906      -0.433403947001965     
 -0.438368152775209      -0.445144213713222      -0.454006898367443     
 -0.465033506684297      -0.477893765322283      -0.491820942870371     
 -0.505725283993577      -0.518526254582087      -0.529467626934885     
 -0.538223959359167      -0.544890358563896      -0.549764480656799     
 -0.553223825444605      -0.555610767789848      -0.474487341524734     
 -0.475769298002343      -0.479071225487400      -0.484035431260648     
 -0.490811492198672      -0.499674176852877      -0.510700785169734     
 -0.523561043807724      -0.537488221355798      -0.551392562479026     
 -0.564193533067511      -0.575134905420320      -0.583891237844601     
 -0.590557637049334      -0.595431759142232      -0.598891103930044     
 -0.601278046275287      -0.518585985057559      -0.519867941535180     
 -0.523169869020235      -0.528134074793485      -0.534910135731505     
 -0.543772820385714      -0.554799428702569      -0.567659687340558     
 -0.581586864888651      -0.595491206011858      -0.608292176600360     
 -0.619233548953163      -0.627989881377441      -0.634656280582169     
 -0.639530402675076      -0.642989747462881      -0.645376689808126     
 -0.558386805723076      -0.559668762200690      -0.562970689685739     
 -0.567934895458991      -0.574710956397017      -0.583573641051227     
 -0.594600249368079      -0.607460508006067      -0.621387685554159     
 -0.635292026677373      -0.648092997265872      -0.659034369618669     
 -0.667790702042951      -0.674457101247681      -0.679331223340585     
 -0.682790568128383      -0.685177510473638      -0.592176251743047     
 -0.593458208220659      -0.596760135705715      -0.601724341478965     
 -0.608500402416981      -0.617363087071194      -0.628389695388052     
 -0.641249954026040      -0.655177131574131      -0.669081472697347     
 -0.681882443285841      -0.692823815638642      -0.701580148062921     
 -0.708246547267651      -0.713120669360555      -0.716580014148351     
 -0.718966956493595      -0.619403557956344      -0.620685514433958     
 -0.623987441919015      -0.628951647692261      -0.635727708630288     
 -0.644590393284501      -0.655617001601340      -0.668477260239338     
 -0.682404437787429      -0.696308778910633      -0.709109749499143     
 -0.720051121851941      -0.728807454276221      -0.735473853480946     
 -0.740347975573852      -0.743807320361656      -0.746194262706892     
 -0.640435179147580      -0.641717135625189      -0.645019063110256     
 -0.649983268883501      -0.656759329821526      -0.665622014475738     
 -0.676648622792591      -0.689508881430557      -0.703436058978664     
 -0.717340400101872      -0.730141370690378      -0.741082743043162     
 -0.749839075467440      -0.756505474672179      -0.761379596765082     
 -0.764838941552896      -0.767225883898135      -0.656156657974144     
 -0.657438614451740      -0.660740541936801      -0.665704747710062     
 -0.672480808648085      -0.681343493302295      -0.692370101619149     
 -0.705230360257135      -0.719157537805218      -0.733061878928439     
 -0.745862849516923      -0.756804221869727      -0.765560554293997     
 -0.772226953498730      -0.777101075591651      -0.780560420379452     
 -0.782947362724703      -0.667622888750425      -0.668904845228035     
 -0.672206772713101      -0.677170978486328      -0.683947039424370     
 -0.692809724078557      -0.703836332395428      -0.716696591033414     
 -0.730623768581509      -0.744528109704719      -0.757329080293222     
 -0.768270452646028      -0.777026785070302      -0.783693184275034     
 -0.788567306367935      -0.792026651155729      -0.794413593500979     
 -0.675836308742802      -0.677118265220418      -0.680420192705476     
 -0.685384398478719      -0.692160459416745      -0.701023144070953     
 -0.712049752387804      -0.724910011025794      -0.738837188573880     
 -0.752741529697098      -0.765542500285594      -0.776483872638373     
 -0.785240205062675      -0.791906604267387      -0.796780726360311     
 -0.800240071148109      -0.802627013493362      -0.681644014668935     
 -0.682925971146542      -0.686227898631598      -0.691192104404848     
 -0.697968165342866      -0.706830849997070      -0.717857458313912     
 -0.730717716951916      -0.744644894499989      -0.758549235623211     
 -0.771350206211721      -0.782291578564519      -0.791047910988794     
 -0.797714310193526      -0.802588432286422      -0.806047777074240     
 -0.808434719419489     
 -0.374115123339687      -0.372936338750410      -0.369900150469243     
 -0.365335464096733      -0.359104740706950      -0.350955325128144     
 -0.340816138515415      -0.328990873803768      -0.316184555841715     
 -0.303399236428512      -0.291628488262698      -0.281567677821573     
 -0.273516055242659      -0.267386168007220      -0.262904315378285     
 -0.259723378742700      -0.257528537575152      -0.380431142652958     
 -0.379252358063685      -0.376216169782520      -0.371651483410006     
 -0.365420760020221      -0.357271344441416      -0.347132157828691     
 -0.335306893117040      -0.322500575154990      -0.309715255741786     
 -0.297944507575970      -0.287883697134850      -0.279832074555933     
 -0.273702187320493      -0.269220334691556      -0.266039398055973     
 -0.263844556888423      -0.389363433640096      -0.388184649050822     
 -0.385148460769654      -0.380583774397141      -0.374353051007355     
 -0.366203635428549      -0.356064448815830      -0.344239184104176     
 -0.331432866142125      -0.318647546728919      -0.306876798563107     
 -0.296815988121987      -0.288764365543070      -0.282634478307629     
 -0.278152625678693      -0.274971689043108      -0.272776847875560     
 -0.401833234273025      -0.400654449683747      -0.397618261402583     
 -0.393053575030070      -0.386822851640285      -0.378673436061479     
 -0.368534249448757      -0.356708984737108      -0.343902666775056     
 -0.331117347361846      -0.319346599196035      -0.309285788754912     
 -0.301234166175998      -0.295104278940558      -0.290622426311618     
 -0.287441489676036      -0.285246648508488      -0.418930719091446     
 -0.417751934502170      -0.414715746221003      -0.410151059848490     
 -0.403920336458704      -0.395770920879901      -0.385631734267172     
 -0.373806469555525      -0.361000151593473      -0.348214832180266     
 -0.336444084014453      -0.326383273573330      -0.318331650994417     
 -0.312201763758978      -0.307719911130042      -0.304538974494454     
 -0.302344133326907      -0.441803110931356      -0.440624326342081     
 -0.437588138060907      -0.433023451688398      -0.426792728298610     
 -0.418643312719805      -0.408504126107081      -0.396678861395431     
 -0.383872543433380      -0.371087224020175      -0.359316475854365     
 -0.349255665413241      -0.341204042834327      -0.335074155598884     
 -0.330592302969948      -0.327411366334364      -0.325216525166815     
 -0.471413458645077      -0.470234674055793      -0.467198485774625     
 -0.462633799402115      -0.456403076012334      -0.448253660433526     
 -0.438114473820799      -0.426289209109154      -0.413482891147100     
 -0.400697571733890      -0.388926823568080      -0.378866013126961     
 -0.370814390548045      -0.364684503312604      -0.360202650683669     
 -0.357021714048081      -0.354826872880533      -0.508160290588976     
 -0.506981505999700      -0.503945317718529      -0.499380631346021     
 -0.493149907956238      -0.485000492377431      -0.474861305764704     
 -0.463036041053060      -0.450229723090997      -0.437444403677796     
 -0.425673655511984      -0.415612845070861      -0.407561222491952     
 -0.401431335256506      -0.396949482627572      -0.393768545991987     
 -0.391573704824441      -0.551444636457217      -0.550265851867950     
 -0.547229663586782      -0.542664977214270      -0.536434253824483     
 -0.528284838245679      -0.518145651632946      -0.506320386921302     
 -0.493514068959250      -0.480728749546048      -0.468958001380235     
 -0.458897190939111      -0.450845568360199      -0.444715681124752     
 -0.440233828495813      -0.437052891860239      -0.434858050692686     
 -0.599402967644350      -0.598224183055078      -0.595187994773904     
 -0.590623308401391      -0.584392585011606      -0.576243169432799     
 -0.566103982820079      -0.554278718108423      -0.541472400146373     
 -0.528687080733168      -0.516916332567360      -0.506855522126230     
 -0.498803899547319      -0.492674012311877      -0.488192159682945     
 -0.485011223047359      -0.482816381879814      -0.649067226917734     
 -0.647888442328454      -0.644852254047288      -0.640287567674781     
 -0.634056844284995      -0.625907428706187      -0.615768242093456     
 -0.603942977381817      -0.591136659419756      -0.578351340006549     
 -0.566580591840738      -0.556519781399616      -0.548468158820699     
 -0.542338271585263      -0.537856418956320      -0.534675482320739     
 -0.532480641153191      -0.697025558104856      -0.695846773515584     
 -0.692810585234415      -0.688245898861904      -0.682015175472111     
 -0.673865759893303      -0.663726573280581      -0.651901308568933     
 -0.639094990606887      -0.626309671193676      -0.614538923027864     
 -0.604478112586745      -0.596426490007827      -0.590296602772394     
 -0.585814750143455      -0.582633813507868      -0.580438972340321     
 -0.740309903973103      -0.739131119383825      -0.736094931102658     
 -0.731530244730151      -0.725299521340359      -0.717150105761557     
 -0.707010919148834      -0.695185654437189      -0.682379336475135     
 -0.669594017061929      -0.657823268896113      -0.647762458454991     
 -0.639710835876078      -0.633580948640637      -0.629099096011700     
 -0.625918159376112      -0.623723318208574      -0.777056735917009     
 -0.775877951327735      -0.772841763046561      -0.768277076674052     
 -0.762046353284268      -0.753896937705459      -0.743757751092739     
 -0.731932486381088      -0.719126168419036      -0.706340849005829     
 -0.694570100840020      -0.684509290398892      -0.676457667819979     
 -0.670327780584545      -0.665845927955600      -0.662664991320013     
 -0.660470150152466      -0.806667083630722      -0.805488299041455     
 -0.802452110760288      -0.797887424387772      -0.791656700997982     
 -0.783507285419184      -0.773368098806450      -0.761542834094810     
 -0.748736516132756      -0.735951196719547      -0.724180448553735     
 -0.714119638112617      -0.706068015533703      -0.699938128298258     
 -0.695456275669325      -0.692275339033738      -0.690080497866187     
 -0.829539475470636      -0.828360690881355      -0.825324502600194     
 -0.820759816227685      -0.814529092837899      -0.806379677259094     
 -0.796240490646370      -0.784415225934710      -0.771608907972666     
 -0.758823588559451      -0.747052840393642      -0.736992029952518     
 -0.728940407373606      -0.722810520138158      -0.718328667509228     
 -0.715147730873646      -0.712952889706103      -0.846636960289054     
 -0.845458175699772      -0.842421987418609      -0.837857301046104     
 -0.831626577656312      -0.823477162077514      -0.813337975464784     
 -0.801512710753135      -0.788706392791083      -0.775921073377871     
 -0.764150325212060      -0.754089514770933      -0.746037892192023     
 -0.739908004956583      -0.735426152327650      -0.732245215692059     
 -0.730050374524519      -0.859106760921983      -0.857927976332708     
 -0.854891788051543      -0.850327101679022      -0.844096378289247     
 -0.835946962710432      -0.825807776097718      -0.813982511386057     
 -0.801176193424012      -0.788390874010796      -0.776620125844989     
 -0.766559315403877      -0.758507692824963      -0.752377805589521     
 -0.747895952960576      -0.744715016324996      -0.742520175157439     
 -0.868039051909118      -0.866860267319845      -0.863824079038676     
 -0.859259392666153      -0.853028669276381      -0.844879253697577     
 -0.834740067084848      -0.822914802373193      -0.810108484411141     
 -0.797323164997934      -0.785552416832129      -0.775491606391003     
 -0.767439983812090      -0.761310096576650      -0.756828243947719     
 -0.753647307312131      -0.751452466144579      -0.874355071222392     
 -0.873176286633119      -0.870140098351942      -0.865575411979434     
 -0.859344688589647      -0.851195273010844      -0.841056086398117     
 -0.829230821686465      -0.816424503724415      -0.803639184311213     
 -0.791868436145405      -0.781807625704281      -0.773756003125358     
 -0.767626115889922      -0.763144263260988      -0.759963326625407     
 -0.757768485457855     
  0.000000000000000E+000 -3.282172018590466E-004 -1.033620650049141E-003
 -2.198955220658941E-003 -4.476742922393904E-003 -7.979640656267073E-003
 -1.263026983295655E-002 -1.826709190868895E-002 -2.441396652989334E-002
 -3.056244072773302E-002 -3.622807327755116E-002 -4.107753596790794E-002
 -4.495244726653555E-002 -4.790767994332594E-002 -5.006842939802218E-002
 -5.160152297946802E-002 -5.266055883330620E-002  0.000000000000000E+000
 -3.282172018590466E-004 -1.033620650049141E-003 -2.198955220658941E-003
 -4.476742922393904E-003 -7.979640656267073E-003 -1.263026983295655E-002
 -1.826709190868895E-002 -2.441396652989334E-002 -3.056244072773302E-002
 -3.622807327755116E-002 -4.107753596790794E-002 -4.495244726653555E-002
 -4.790767994332594E-002 -5.006842939802218E-002 -5.160152297946802E-002
 -5.266055883330620E-002  0.000000000000000E+000 -3.282172018590466E-004
 -1.033620650049141E-003 -2.198955220658941E-003 -4.476742922393904E-003
 -7.979640656267073E-003 -1.263026983295655E-002 -1.826709190868895E-002
 -2.441396652989334E-002 -3.056244072773302E-002 -3.622807327755116E-002
 -4.107753596790794E-002 -4.495244726653555E-002 -4.790767994332594E-002
 -5.006842939802218E-002 -5.160152297946802E-002 -5.266055883330620E-002
  0.000000000000000E+000 -3.282172018590466E-004 -1.033620650049141E-003
 -2.198955220658941E-003 -4.476742922393904E-003 -7.979640656267073E-003
 -1.263026983295655E-002 -1.826709190868895E-002 -2.441396652989334E-002
 -3.056244072773302E-002 -3.622807327755116E-002 -4.107753596790794E-002
 -4.495244726653555E-002 -4.790767994332594E-002 -5.006842939802218E-002
 -5.160152297946802E-002 -5.266055883330620E-002  0.000000000000000E+000
 -3.282172018590466E-004 -1.033620650049141E-003 -2.198955220658941E-003
 -4.476742922393904E-003 -7.979640656267073E-003 -1.263026983295655E-002
 -1.826709190868895E-002 -2.441396652989334E-002 -3.056244072773302E-002
 -3.622807327755116E-002 -4.107753596790794E-002 -4.495244726653555E-002
 -4.790767994332594E-002 -5.006842939802218E-002 -5.160152297946802E-002
 -5.266055883330620E-002  0.000000000000000E+000 -3.282172018590466E-004
 -1.033620650049141E-003 -2.198955220658941E-003 -4.476742922393904E-003
 -7.979640656267073E-003 -1.263026983295655E-002 -1.826709190868895E-002
 -2.441396652989334E-002 -3.056244072773302E-002 -3.622807327755116E-002
 -4.107753596790794E-002 -4.495244726653555E-002 -4.790767994332594E-002
 -5.006842939802218E-002 -5.160152297946802E-002 -5.266055883330620E-002
  0.000000000000000E+000 -3.282172018590466E-004 -1.033620650049141E-003
 -2.198955220658941E-003 -4.476742922393904E-003 -7.979640656267073E-003
 -1.263026983295655E-002 -1.826709190868895E-002 -2.441396652989334E-002
 -3.056244072773302E-002 -3.622807327755116E-002 -4.107753596790794E-002
 -4.495244726653555E-002 -4.790767994332594E-002 -5.006842939802218E-002
 -5.160152297946802E-002 -5.266055883330620E-002  0.000000000000000E+000
 -3.282172018590466E-004 -1.033620650049141E-003 -2.198955220658941E-003
 -4.476742922393904E-003 -7.979640656267073E-003 -1.263026983295655E-002
 -1.826709190868895E-002 -2.441396652989334E-002 -3.056244072773302E-002
 -3.622807327755116E-002 -4.107753596790794E-002 -4.495244726653555E-002
 -4.790767994332594E-002 -5.006842939802218E-002 -5.160152297946802E-002
 -5.266055883330620E-002  0.000000000000000E+000 -3.282172018590466E-004
 -1.033620650049141E-003 -2.198955220658941E-003 -4.476742922393904E-003
 -7.979640656267073E-003 -1.263026983295655E-002 -1.826709190868895E-002
 -2.441396652989334E-002 -3.056244072773302E-002 -3.622807327755116E-002
 -4.107753596790794E-002 -4.495244726653555E-002 -4.790767994332594E-002
 -5.006842939802218E-002 -5.160152297946802E-002 -5.266055883330620E-002
  0.000000000000000E+000 -3.282172018590466E-004 -1.033620650049141E-003
 -2.198955220658941E-003 -4.476742922393904E-003 -7.979640656267073E-003
 -1.263026983295655E-002 -1.826709190868895E-002 -2.441396652989334E-002
 -3.056244072773302E-002 -3.622807327755116E-002 -4.107753596790794E-002
 -4.495244726653555E-002 -4.790767994332594E-002 -5.006842939802218E-002
 -5.160152297946802E-002 -5.266055883330620E-002  0.000000000000000E+000
 -3.282172018590466E-004 -1.033620650049141E-003 -2.198955220658941E-003
 -4.476742922393904E-003 -7.979640656267073E-003 -1.263026983295655E-002
 -1.826709190868895E-002 -2.441396652989334E-002 -3.056244072773302E-002
 -3.622807327755116E-002 -4.107753596790794E-002 -4.495244726653555E-002
 -4.790767994332594E-002 -5.006842939802218E-002 -5.160152297946802E-002
 -5.266055883330620E-002  0.000000000000000E+000 -3.282172018590466E-004
 -1.033620650049141E-003 -2.198955220658941E-003 -4.476742922393904E-003
 -7.979640656267073E-003 -1.263026983295655E-002 -1.826709190868895E-002
 -2.441396652989334E-002 -3.056244072773302E-002 -3.622807327755116E-002
 -4.107753596790794E-002 -4.495244726653555E-002 -4.790767994332594E-002
 -5.006842939802218E-002 -5.160152297946802E-002 -5.266055883330620E-002
  0.000000000000000E+000 -3.282172018590466E-004 -1.033620650049141E-003
 -2.198955220658941E-003 -4.476742922393904E-003 -7.979640656267073E-003
 -1.263026983295655E-002 -1.826709190868895E-002 -2.441396652989334E-002
 -3.056244072773302E-002 -3.622807327755116E-002 -4.107753596790794E-002
 -4.495244726653555E-002 -4.790767994332594E-002 -5.006842939802218E-002
 -5.160152297946802E-002 -5.266055883330620E-002  0.000000000000000E+000
 -3.282172018590466E-004 -1.033620650049141E-003 -2.198955220658941E-003
 -4.476742922393904E-003 -7.979640656267073E-003 -1.263026983295655E-002
 -1.826709190868895E-002 -2.441396652989334E-002 -3.056244072773302E-002
 -3.622807327755116E-002 -4.107753596790794E-002 -4.495244726653555E-002
 -4.790767994332594E-002 -5.006842939802218E-002 -5.160152297946802E-002
 -5.266055883330620E-002  0.000000000000000E+000 -3.282172018590466E-004
 -1.033620650049141E-003 -2.198955220658941E-003 -4.476742922393904E-003
 -7.979640656267073E-003 -1.263026983295655E-002 -1.826709190868895E-002
 -2.441396652989334E-002 -3.056244072773302E-002 -3.622807327755116E-002
 -4.107753596790794E-002 -4.495244726653555E-002 -4.790767994332594E-002
 -5.006842939802218E-002 -5.160152297946802E-002 -5.266055883330620E-002
  0.000000000000000E+000 -3.282172018590466E-004 -1.033620650049141E-003
 -2.198955220658941E-003 -4.476742922393904E-003 -7.979640656267073E-003
 -1.263026983295655E-002 -1.826709190868895E-002 -2.441396652989334E-002
 -3.056244072773302E-002 -3.622807327755116E-002 -4.107753596790794E-002
 -4.495244726653555E-002 -4.790767994332594E-002 -5.006842939802218E-002
 -5.160152297946802E-002 -5.266055883330620E-002  0.000000000000000E+000
 -3.282172018590466E-004 -1.033620650049141E-003 -2.198955220658941E-003
 -4.476742922393904E-003 -7.979640656267073E-003 -1.263026983295655E-002
 -1.826709190868895E-002 -2.441396652989334E-002 -3.056244072773302E-002
 -3.622807327755116E-002 -4.107753596790794E-002 -4.495244726653555E-002
 -4.790767994332594E-002 -5.006842939802218E-002 -5.160152297946802E-002
 -5.266055883330620E-002  0.000000000000000E+000 -3.282172018590466E-004
 -1.033620650049141E-003 -2.198955220658941E-003 -4.476742922393904E-003
 -7.979640656267073E-003 -1.263026983295655E-002 -1.826709190868895E-002
 -2.441396652989334E-002 -3.056244072773302E-002 -3.622807327755116E-002
 -4.107753596790794E-002 -4.495244726653555E-002 -4.790767994332594E-002
 -5.006842939802218E-002 -5.160152297946802E-002 -5.266055883330620E-002
  0.000000000000000E+000 -3.282172018590466E-004 -1.033620650049141E-003
 -2.198955220658941E-003 -4.476742922393904E-003 -7.979640656267073E-003
 -1.263026983295655E-002 -1.826709190868895E-002 -2.441396652989334E-002
 -3.056244072773302E-002 -3.622807327755116E-002 -4.107753596790794E-002
 -4.495244726653555E-002 -4.790767994332594E-002 -5.006842939802218E-002
 -5.160152297946802E-002 -5.266055883330620E-002  0.000000000000000E+000
 -3.282172018590466E-004 -1.033620650049141E-003 -2.198955220658941E-003
 -4.476742922393904E-003 -7.979640656267073E-003 -1.263026983295655E-002
 -1.826709190868895E-002 -2.441396652989334E-002 -3.056244072773302E-002
 -3.622807327755116E-002 -4.107753596790794E-002 -4.495244726653555E-002
 -4.790767994332594E-002 -5.006842939802218E-002 -5.160152297946802E-002
 -5.266055883330620E-002
 -9.991468011689097E-002 -0.193872526125040      -0.220467759724650     
 -0.158359942360826      -8.298429606516171E-002 -2.043642433252847E-002
  2.972303748167865E-002  5.748303380879258E-002  6.998873908878248E-002
  7.061254883243380E-002  6.293117496694742E-002  4.980970935450008E-002
  3.649545982025378E-002  2.425632456103814E-002  1.491476720667920E-002
  9.528622212769759E-003 -0.110671512328179      -0.219821236442204     
 -0.255081764375064      -0.179998089723046      -7.397204661831176E-002
  2.331183956959779E-002  0.104373611821943       0.153082884647493     
  0.177365580476821       0.182232025040120       0.173416483949886     
  0.156120428585043       0.138151818539722       0.122139535655002     
  0.110524434664151       0.104232171563793      -9.860336057032702E-002
 -0.196124369188634      -0.219532630376834      -0.126179883722341     
  6.543317930594266E-003  0.136022700731938       0.248621029685786     
  0.322256297492778       0.363329911053177       0.377650903965559     
  0.372942351824792       0.356770732792291       0.339024194223248     
  0.323212367934054       0.311854183704190       0.305810684054269     
 -6.646916139832812E-002 -0.130332640392153      -0.121318962778584     
  7.973090903120697E-003  0.179607545824354       0.349910128956595     
  0.502302678028867       0.609906603910443       0.676900095402272     
  0.709211258696019       0.716306454165117       0.707813900271712     
  0.695186409272861       0.682547531785646       0.672974401435673     
  0.667873178935753      -1.019452815687722E-002 -1.435198938549647E-002
  5.204200557752993E-002  0.242471928825766       0.476671645905743     
  0.708476467434010       0.918799072367391        1.07675483543926     
   1.18456626159532        1.24790041835068        1.27746611257922     
   1.28444056811439        1.28185494270643        1.27517949604350     
   1.26896274075509        1.26554125976504       7.711365573215508E-002
  0.166036674290287       0.321864788877917       0.606705523357747     
  0.936998034850006        1.26241912055780        1.56009846254647     
   1.79427809572344        1.96503808288808        2.07738511895244     
   2.14288275178923        2.17435391022861        2.18742143953831     
   2.19010874945737        2.18918053836241        2.18826330335832     
  0.202600743483186       0.425631732211496       0.710220308831492     
   1.13037364371756        1.59864366912323        2.05896417629338     
   2.48285341272375        2.82760955110116        3.08999991773224     
   3.27370267480354        3.39120849819468        3.45790665219816     
   3.49352446730009        3.50977656189199        3.51637598036827     
   3.51886338882441       0.369498360786827       0.771108046114229     
   1.22694426456840        1.82642728503723        2.47783376679817     
   3.11782667141550        3.71036088845303        4.20336775094516     
   4.58873351460748        4.86808001386759        5.05518395590932     
   5.16912210044941        5.23510014659756        5.26954438393020     
   5.28604225512102        5.29288146490151       0.571435161072695     
   1.18920763237325        1.85207593472115        2.66779278879285     
   3.54010002537597        4.39716262428811        5.19381184537103     
   5.86671058526891        6.40166384761278        6.79769961771449     
   7.07011383089855        7.24233530645201        7.34590878945905     
   7.40279447714369        7.43136896378451        7.44344561613223     
  0.788182474486256        1.63792073001690        2.52279355634165     
   3.57013251131199        4.67888913803124        5.76821204510213     
   6.78336126421036        7.64927947005614        8.34553848798554     
   8.86841635117527        9.23454258551761        9.47150412639180     
   9.61717943368132        9.69928301899902        9.74142298210427     
   9.75936580970975       0.987779769384325        2.05086619715323     
   3.13991611133600        4.40051069519605        5.72636037447819     
   7.02806915322950        8.24258605526101        9.28492688880016     
   10.1299730112266        10.7717735816499        11.2276045496987     
   11.5278859768193        11.7155536557104        11.8232156071161     
   11.8792674271103        11.9032690864873        1.13710507515230     
   2.35915282896324        3.60030362990529        5.02030661527029     
   6.50678561720659        7.96313540831428        9.32099281349058     
   10.4897760984186        11.4434363536320        12.1754811409466     
   12.7028190136958        13.0561012289371        13.2805164944901     
   13.4114156960706        13.4805060463061        13.5103068741340     
   1.21527105061944        2.51914228029021        3.83810491868910     
   5.34000026375563        6.90502206011410        8.43094892798617     
   9.84808547296349        11.0665643549390        12.0654932072988     
   12.8413701962987        13.4100929549915        13.7988873797619     