 Title = "Wing and Wake"
 VARIABLES = "X" "Y" "Z" "GAM" "skew"
 Zone I=   17 J=   20 K=1  T="Blade 01"
 DATAPACKING=BLOCK
 VARLOCATION=([4]=CELLCENTERED,[5]=CELLCENTERED)
  0.221663389895092       0.222945346372703       0.226247273857760     
  0.231211479631010       0.237987540569034       0.246850225223243     
  0.257876833540094       0.270737092178084       0.284664269726172     
  0.298568610849391       0.311369581437884       0.322310953790684     
  0.331067286214964       0.337733685419691       0.342607807512598     
  0.346067152300403       0.348454094645648       0.227471095821217     
  0.228753052298829       0.232054979783886       0.237019185557135     
  0.243795246495158       0.252657931149367       0.263684539466221     
  0.276544798104208       0.290471975652299       0.304376316775516     
  0.317177287364010       0.328118659716812       0.336874992141091     
  0.343541391345820       0.348415513438719       0.351874858226530     
  0.354261800571774       0.235684515813592       0.236966472291202     
  0.240268399776259       0.245232605549510       0.252008666487533     
  0.260871351141738       0.271897959458594       0.284758218096582     
  0.298685395644673       0.312589736767892       0.325390707356384     
  0.336332079709185       0.345088412133464       0.351754811338191     
  0.356628933431096       0.360088278218904       0.362475220564150     
  0.247150746589875       0.248432703067487       0.251734630552545     
  0.256698836325793       0.263474897263818       0.272337581918025     
  0.283364190234880       0.296224448872867       0.310151626420957     
  0.324055967544172       0.336856938132668       0.347798310485471     
  0.356554642909749       0.363221042114478       0.368095164207380     
  0.371554508995187       0.373941451340433       0.262872225416435     
  0.264154181894048       0.267456109379105       0.272420315152353     
  0.279196376090378       0.288059060744586       0.299085669061438     
  0.311945927699427       0.325873105247518       0.339777446370734     
  0.352578416959227       0.363519789312027       0.372276121736309     
  0.378942520941038       0.383816643033940       0.387275987821748     
  0.389662930166993       0.283903846607673       0.285185803085284     
  0.288487730570341       0.293451936343591       0.300227997281613     
  0.309090681935823       0.320117290252672       0.332977548890663     
  0.346904726438752       0.360809067561970       0.373610038150466     
  0.384551410503266       0.393307742927545       0.399974142132271     
  0.404848264225177       0.408307609012984       0.410694551358229     
  0.311131152820973       0.312413109298581       0.315715036783636     
  0.320679242556888       0.327455303494913       0.336317988149120     
  0.347344596465972       0.360204855103962       0.374132032652050     
  0.388036373775267       0.400837344363761       0.411778716716564     
  0.420535049140844       0.427201448345573       0.432075570438476     
  0.435534915226280       0.437921857571528       0.344920598840941     
  0.346202555318554       0.349504482803610       0.354468688576859     
  0.361244749514885       0.370107434169093       0.381134042485939     
  0.393994301123933       0.407921478672023       0.421825819795239     
  0.434626790383734       0.445568162736534       0.454324495160815     
  0.460990894365542       0.465865016458446       0.469324361246253     
  0.471711303591499       0.384721419506450       0.386003375984063     
  0.389305303469119       0.394269509242367       0.401045570180389     
  0.409908254834599       0.420934863151452       0.433795121789441     
  0.447722299337531       0.461626640460745       0.474427611049243     
  0.485368983402043       0.494125315826324       0.500791715031051     
  0.505665837123955       0.509125181911764       0.511512124257003     
  0.428820063039286       0.430102019516897       0.433403947001955     
  0.438368152775202       0.445144213713222       0.454006898367434     
  0.465033506684289       0.477893765322277       0.491820942870363     
  0.505725283993577       0.518526254582078       0.529467626934877     
  0.538223959359158       0.544890358563887       0.549764480656792     
  0.553223825444595       0.555610767789841       0.474487341524721     
  0.475769298002333       0.479071225487390       0.484035431260637     
  0.490811492198660       0.499674176852870       0.510700785169726     
  0.523561043807713       0.537488221355798       0.551392562479020     
  0.564193533067510       0.575134905420316       0.583891237844592     
  0.590557637049324       0.595431759142227       0.598891103930030     
  0.601278046275277       0.518585985057558       0.519867941535169     
  0.523169869020224       0.528134074793473       0.534910135731499     
  0.543772820385703       0.554799428702559       0.567659687340546     
  0.581586864888639       0.595491206011856       0.608292176600349     
  0.619233548953150       0.627989881377430       0.634656280582158     
  0.639530402675063       0.642989747462871       0.645376689808115     
  0.558386805723067       0.559668762200677       0.562970689685733     
  0.567934895458983       0.574710956397009       0.583573641051216     
  0.594600249368068       0.607460508006057       0.621387685554147     
  0.635292026677363       0.648092997265857       0.659034369618656     
  0.667790702042936       0.674457101247669       0.679331223340569     
  0.682790568128375       0.685177510473624       0.592176251743036     
  0.593458208220647       0.596760135705703       0.601724341478956     
  0.608500402416978       0.617363087071186       0.628389695388041     
  0.641249954026029       0.655177131574118       0.669081472697335     
  0.681882443285829       0.692823815638629       0.701580148062907     
  0.708246547267640       0.713120669360543       0.716580014148347     
  0.718966956493591       0.619403557956336       0.620685514433945     
  0.623987441919003       0.628951647692250       0.635727708630274     
  0.644590393284485       0.655617001601334       0.668477260239324     
  0.682404437787419       0.696308778910632       0.709109749499126     
  0.720051121851927       0.728807454276208       0.735473853480937     
  0.740347975573839       0.743807320361645       0.746194262706891     
  0.640435179147573       0.641717135625181       0.645019063110240     
  0.649983268883486       0.656759329821511       0.665622014475725     
  0.676648622792576       0.689508881430557       0.703436058978648     
  0.717340400101864       0.730141370690363       0.741082743043160     
  0.749839075467440       0.756505474672169       0.761379596765073     
  0.764838941552883       0.767225883898131       0.656156657974132     
  0.657438614451739       0.660740541936801       0.665704747710047     
  0.672480808648072       0.681343493302281       0.692370101619135     
  0.705230360257121       0.719157537805216       0.733061878928429     
  0.745862849516923       0.756804221869722       0.765560554293997     
  0.772226953498730       0.777101075591636       0.780560420379439     
  0.782947362724689       0.667622888750413       0.668904845228032     
  0.672206772713083       0.677170978486328       0.683947039424359     
  0.692809724078557       0.703836332395416       0.716696591033403     
  0.730623768581498       0.744528109704712       0.757329080293206     
  0.768270452646007       0.777026785070290       0.783693184275021     
  0.788567306367920       0.792026651155729       0.794413593500970     
  0.675836308742792       0.677118265220402       0.680420192705463     
  0.685384398478709       0.692160459416734       0.701023144070942     
  0.712049752387793       0.724910011025781       0.738837188573870     
  0.752741529697085       0.765542500285580       0.776483872638373     
  0.785240205062660       0.791906604267387       0.796780726360293     
  0.800240071148105       0.802627013493349       0.681644014668920     
  0.682925971146526       0.686227898631583       0.691192104404832     
  0.697968165342856       0.706830849997060       0.717857458313912     
  0.730717716951903       0.744644894499989       0.758549235623211     
  0.771350206211708       0.782291578564505       0.791047910988784     
  0.797714310193516       0.802588432286421       0.806047777074226     
  0.808434719419472     
  0.374115123339686       0.372936338750408       0.369900150469242     
  0.365335464096731       0.359104740706947       0.350955325128140     
  0.340816138515415       0.328990873803766       0.316184555841715     
  0.303399236428510       0.291628488262697       0.281567677821573     
  0.273516055242660       0.267386168007220       0.262904315378283     
  0.259723378742700       0.257528537575152       0.380431142652959     
  0.379252358063684       0.376216169782517       0.371651483410004     
  0.365420760020219       0.357271344441413       0.347132157828691     
  0.335306893117040       0.322500575154989       0.309715255741784     
  0.297944507575970       0.287883697134849       0.279832074555933     
  0.273702187320494       0.269220334691556       0.266039398055973     
  0.263844556888424       0.389363433640096       0.388184649050820     
  0.385148460769650       0.380583774397141       0.374353051007355     
  0.366203635428549       0.356064448815826       0.344239184104175     
  0.331432866142125       0.318647546728918       0.306876798563106     
  0.296815988121985       0.288764365543070       0.282634478307629     
  0.278152625678693       0.274971689043107       0.272776847875561     
  0.401833234273023       0.400654449683747       0.397618261402579     
  0.393053575030069       0.386822851640285       0.378673436061478     
  0.368534249448755       0.356708984737107       0.343902666775054     
  0.331117347361846       0.319346599196035       0.309285788754912     
  0.301234166175998       0.295104278940558       0.290622426311620     
  0.287441489676035       0.285246648508488       0.418930719091443     
  0.417751934502167       0.414715746220999       0.410151059848488     
  0.403920336458702       0.395770920879898       0.385631734267172     
  0.373806469555523       0.361000151593473       0.348214832180265     
  0.336444084014452       0.326383273573330       0.318331650994416     
  0.312201763758977       0.307719911130041       0.304538974494454     
  0.302344133326907       0.441803110931353       0.440624326342078     
  0.437588138060907       0.433023451688398       0.426792728298610     
  0.418643312719806       0.408504126107081       0.396678861395431     
  0.383872543433380       0.371087224020174       0.359316475854364     
  0.349255665413240       0.341204042834325       0.335074155598884     
  0.330592302969947       0.327411366334363       0.325216525166817     
  0.471413458645071       0.470234674055796       0.467198485774625     
  0.462633799402115       0.456403076012332       0.448253660433525     
  0.438114473820798       0.426289209109152       0.413482891147100     
  0.400697571733891       0.388926823568079       0.378866013126960     
  0.370814390548045       0.364684503312604       0.360202650683669     
  0.357021714048082       0.354826872880534       0.508160290588975     
  0.506981505999701       0.503945317718529       0.499380631346020     
  0.493149907956236       0.485000492377429       0.474861305764704     
  0.463036041053058       0.450229723091000       0.437444403677796     
  0.425673655511985       0.415612845070863       0.407561222491949     
  0.401431335256506       0.396949482627572       0.393768545991987     
  0.391573704824439       0.551444636457221       0.550265851867949     
  0.547229663586779       0.542664977214268       0.536434253824482     
  0.528284838245676       0.518145651632950       0.506320386921302     
  0.493514068959250       0.480728749546045       0.468958001380234     
  0.458897190939109       0.450845568360196       0.444715681124755     
  0.440233828495817       0.437052891860237       0.434858050692686     
  0.599402967644348       0.598224183055073       0.595187994773903     
  0.590623308401392       0.584392585011606       0.576243169432798     
  0.566103982820078       0.554278718108425       0.541472400146373     
  0.528687080733168       0.516916332567357       0.506855522126231     
  0.498803899547320       0.492674012311879       0.488192159682945     
  0.485011223047358       0.482816381879813       0.649067226917729     
  0.647888442328453       0.644852254047284       0.640287567674775     
  0.634056844284987       0.625907428706185       0.615768242093458     
  0.603942977381815       0.591136659419756       0.578351340006551     
  0.566580591840738       0.556519781399616       0.548468158820700     
  0.542338271585264       0.537856418956322       0.534675482320738     
  0.532480641153191       0.697025558104855       0.695846773515580     
  0.692810585234410       0.688245898861900       0.682015175472112     
  0.673865759893304       0.663726573280583       0.651901308568931     
  0.639094990606883       0.626309671193677       0.614538923027863     
  0.604478112586742       0.596426490007826       0.590296602772390     
  0.585814750143452       0.582633813507866       0.580438972340319     
  0.740309903973101       0.739131119383825       0.736094931102656     
  0.731530244730147       0.725299521340360       0.717150105761554     
  0.707010919148832       0.695185654437185       0.682379336475132     
  0.669594017061927       0.657823268896110       0.647762458454989     
  0.639710835876076       0.633580948640635       0.629099096011697     
  0.625918159376111       0.623723318208569       0.777056735917006     
  0.775877951327732       0.772841763046559       0.768277076674053     
  0.762046353284268       0.753896937705460       0.743757751092738     
  0.731932486381087       0.719126168419035       0.706340849005827     
  0.694570100840016       0.684509290398893       0.676457667819979     
  0.670327780584542       0.665845927955600       0.662664991320014     
  0.660470150152467       0.806667083630725       0.805488299041449     
  0.802452110760282       0.797887424387768       0.791656700997981     
  0.783507285419178       0.773368098806451       0.761542834094806     
  0.748736516132756       0.735951196719547       0.724180448553734     
  0.714119638112614       0.706068015533700       0.699938128298257     
  0.695456275669321       0.692275339033738       0.690080497866187     
  0.829539475470634       0.828360690881357       0.825324502600189     
  0.820759816227678       0.814529092837893       0.806379677259090     
  0.796240490646365       0.784415225934710       0.771608907972661     
  0.758823588559450       0.747052840393644       0.736992029952520     
  0.728940407373606       0.722810520138162       0.718328667509229     
  0.715147730873645       0.712952889706102       0.846636960289053     
  0.845458175699772       0.842421987418609       0.837857301046097     
  0.831626577656311       0.823477162077507       0.813337975464783     
  0.801512710753134       0.788706392791082       0.775921073377876     
  0.764150325212060       0.754089514770937       0.746037892192023     
  0.739908004956583       0.735426152327648       0.732245215692060     
  0.730050374524515       0.859106760921979       0.857927976332707     
  0.854891788051535       0.850327101679022       0.844096378289242     
  0.835946962710432       0.825807776097712       0.813982511386059     
  0.801176193424011       0.788390874010801       0.776620125844987     
  0.766559315403870       0.758507692824959       0.752377805589518     
  0.747895952960576       0.744715016324996       0.742520175157442     
  0.868039051909117       0.866860267319842       0.863824079038677     
  0.859259392666159       0.853028669276377       0.844879253697575     
  0.834740067084847       0.822914802373194       0.810108484411143     
  0.797323164997936       0.785552416832124       0.775491606391003     
  0.767439983812088       0.761310096576650       0.756828243947712     
  0.753647307312129       0.751452466144580       0.874355071222392     
  0.873176286633115       0.870140098351943       0.865575411979433     
  0.859344688589650       0.851195273010841       0.841056086398117     
  0.829230821686469       0.816424503724415       0.803639184311213     
  0.791868436145401       0.781807625704277       0.773756003125359     
  0.767626115889924       0.763144263260988       0.759963326625404     
  0.757768485457853     
  0.000000000000000E+000 -3.282172018590466E-004 -1.033620650049141E-003
 -2.198955220658941E-003 -4.476742922393904E-003 -7.979640656267073E-003
 -1.263026983295655E-002 -1.826709190868895E-002 -2.441396652989334E-002
 -3.056244072773302E-002 -3.622807327755116E-002 -4.107753596790794E-002
 -4.495244726653555E-002 -4.790767994332594E-002 -5.006842939802218E-002
 -5.160152297946802E-002 -5.266055883330620E-002  0.000000000000000E+000
 -3.282172018590466E-004 -1.033620650049141E-003 -2.198955220658941E-003
 -4.476742922393904E-003 -7.979640656267073E-003 -1.263026983295655E-002
 -1.826709190868895E-002 -2.441396652989334E-002 -3.056244072773302E-002
 -3.622807327755116E-002 -4.107753596790794E-002 -4.495244726653555E-002
 -4.790767994332594E-002 -5.006842939802218E-002 -5.160152297946802E-002
 -5.266055883330620E-002  0.000000000000000E+000 -3.282172018590466E-004
 -1.033620650049141E-003 -2.198955220658941E-003 -4.476742922393904E-003
 -7.979640656267073E-003 -1.263026983295655E-002 -1.826709190868895E-002
 -2.441396652989334E-002 -3.056244072773302E-002 -3.622807327755116E-002
 -4.107753596790794E-002 -4.495244726653555E-002 -4.790767994332594E-002
 -5.006842939802218E-002 -5.160152297946802E-002 -5.266055883330620E-002
  0.000000000000000E+000 -3.282172018590466E-004 -1.033620650049141E-003
 -2.198955220658941E-003 -4.476742922393904E-003 -7.979640656267073E-003
 -1.263026983295655E-002 -1.826709190868895E-002 -2.441396652989334E-002
 -3.056244072773302E-002 -3.622807327755116E-002 -4.107753596790794E-002
 -4.495244726653555E-002 -4.790767994332594E-002 -5.006842939802218E-002
 -5.160152297946802E-002 -5.266055883330620E-002  0.000000000000000E+000
 -3.282172018590466E-004 -1.033620650049141E-003 -2.198955220658941E-003
 -4.476742922393904E-003 -7.979640656267073E-003 -1.263026983295655E-002
 -1.826709190868895E-002 -2.441396652989334E-002 -3.056244072773302E-002
 -3.622807327755116E-002 -4.107753596790794E-002 -4.495244726653555E-002
 -4.790767994332594E-002 -5.006842939802218E-002 -5.160152297946802E-002
 -5.266055883330620E-002  0.000000000000000E+000 -3.282172018590466E-004
 -1.033620650049141E-003 -2.198955220658941E-003 -4.476742922393904E-003
 -7.979640656267073E-003 -1.263026983295655E-002 -1.826709190868895E-002
 -2.441396652989334E-002 -3.056244072773302E-002 -3.622807327755116E-002
 -4.107753596790794E-002 -4.495244726653555E-002 -4.790767994332594E-002
 -5.006842939802218E-002 -5.160152297946802E-002 -5.266055883330620E-002
  0.000000000000000E+000 -3.282172018590466E-004 -1.033620650049141E-003
 -2.198955220658941E-003 -4.476742922393904E-003 -7.979640656267073E-003
 -1.263026983295655E-002 -1.826709190868895E-002 -2.441396652989334E-002
 -3.056244072773302E-002 -3.622807327755116E-002 -4.107753596790794E-002
 -4.495244726653555E-002 -4.790767994332594E-002 -5.006842939802218E-002
 -5.160152297946802E-002 -5.266055883330620E-002  0.000000000000000E+000
 -3.282172018590466E-004 -1.033620650049141E-003 -2.198955220658941E-003
 -4.476742922393904E-003 -7.979640656267073E-003 -1.263026983295655E-002
 -1.826709190868895E-002 -2.441396652989334E-002 -3.056244072773302E-002
 -3.622807327755116E-002 -4.107753596790794E-002 -4.495244726653555E-002
 -4.790767994332594E-002 -5.006842939802218E-002 -5.160152297946802E-002
 -5.266055883330620E-002  0.000000000000000E+000 -3.282172018590466E-004
 -1.033620650049141E-003 -2.198955220658941E-003 -4.476742922393904E-003
 -7.979640656267073E-003 -1.263026983295655E-002 -1.826709190868895E-002
 -2.441396652989334E-002 -3.056244072773302E-002 -3.622807327755116E-002
 -4.107753596790794E-002 -4.495244726653555E-002 -4.790767994332594E-002
 -5.006842939802218E-002 -5.160152297946802E-002 -5.266055883330620E-002
  0.000000000000000E+000 -3.282172018590466E-004 -1.033620650049141E-003
 -2.198955220658941E-003 -4.476742922393904E-003 -7.979640656267073E-003
 -1.263026983295655E-002 -1.826709190868895E-002 -2.441396652989334E-002
 -3.056244072773302E-002 -3.622807327755116E-002 -4.107753596790794E-002
 -4.495244726653555E-002 -4.790767994332594E-002 -5.006842939802218E-002
 -5.160152297946802E-002 -5.266055883330620E-002  0.000000000000000E+000
 -3.282172018590466E-004 -1.033620650049141E-003 -2.198955220658941E-003
 -4.476742922393904E-003 -7.979640656267073E-003 -1.263026983295655E-002
 -1.826709190868895E-002 -2.441396652989334E-002 -3.056244072773302E-002
 -3.622807327755116E-002 -4.107753596790794E-002 -4.495244726653555E-002
 -4.790767994332594E-002 -5.006842939802218E-002 -5.160152297946802E-002
 -5.266055883330620E-002  0.000000000000000E+000 -3.282172018590466E-004
 -1.033620650049141E-003 -2.198955220658941E-003 -4.476742922393904E-003
 -7.979640656267073E-003 -1.263026983295655E-002 -1.826709190868895E-002
 -2.441396652989334E-002 -3.056244072773302E-002 -3.622807327755116E-002
 -4.107753596790794E-002 -4.495244726653555E-002 -4.790767994332594E-002
 -5.006842939802218E-002 -5.160152297946802E-002 -5.266055883330620E-002
  0.000000000000000E+000 -3.282172018590466E-004 -1.033620650049141E-003
 -2.198955220658941E-003 -4.476742922393904E-003 -7.979640656267073E-003
 -1.263026983295655E-002 -1.826709190868895E-002 -2.441396652989334E-002
 -3.056244072773302E-002 -3.622807327755116E-002 -4.107753596790794E-002
 -4.495244726653555E-002 -4.790767994332594E-002 -5.006842939802218E-002
 -5.160152297946802E-002 -5.266055883330620E-002  0.000000000000000E+000
 -3.282172018590466E-004 -1.033620650049141E-003 -2.198955220658941E-003
 -4.476742922393904E-003 -7.979640656267073E-003 -1.263026983295655E-002
 -1.826709190868895E-002 -2.441396652989334E-002 -3.056244072773302E-002
 -3.622807327755116E-002 -4.107753596790794E-002 -4.495244726653555E-002
 -4.790767994332594E-002 -5.006842939802218E-002 -5.160152297946802E-002
 -5.266055883330620E-002  0.000000000000000E+000 -3.282172018590466E-004
 -1.033620650049141E-003 -2.198955220658941E-003 -4.476742922393904E-003
 -7.979640656267073E-003 -1.263026983295655E-002 -1.826709190868895E-002
 -2.441396652989334E-002 -3.056244072773302E-002 -3.622807327755116E-002
 -4.107753596790794E-002 -4.495244726653555E-002 -4.790767994332594E-002
 -5.006842939802218E-002 -5.160152297946802E-002 -5.266055883330620E-002
  0.000000000000000E+000 -3.282172018590466E-004 -1.033620650049141E-003
 -2.198955220658941E-003 -4.476742922393904E-003 -7.979640656267073E-003
 -1.263026983295655E-002 -1.826709190868895E-002 -2.441396652989334E-002
 -3.056244072773302E-002 -3.622807327755116E-002 -4.107753596790794E-002
 -4.495244726653555E-002 -4.790767994332594E-002 -5.006842939802218E-002
 -5.160152297946802E-002 -5.266055883330620E-002  0.000000000000000E+000
 -3.282172018590466E-004 -1.033620650049141E-003 -2.198955220658941E-003
 -4.476742922393904E-003 -7.979640656267073E-003 -1.263026983295655E-002
 -1.826709190868895E-002 -2.441396652989334E-002 -3.056244072773302E-002
 -3.622807327755116E-002 -4.107753596790794E-002 -4.495244726653555E-002
 -4.790767994332594E-002 -5.006842939802218E-002 -5.160152297946802E-002
 -5.266055883330620E-002  0.000000000000000E+000 -3.282172018590466E-004
 -1.033620650049141E-003 -2.198955220658941E-003 -4.476742922393904E-003
 -7.979640656267073E-003 -1.263026983295655E-002 -1.826709190868895E-002
 -2.441396652989334E-002 -3.056244072773302E-002 -3.622807327755116E-002
 -4.107753596790794E-002 -4.495244726653555E-002 -4.790767994332594E-002
 -5.006842939802218E-002 -5.160152297946802E-002 -5.266055883330620E-002
  0.000000000000000E+000 -3.282172018590466E-004 -1.033620650049141E-003
 -2.198955220658941E-003 -4.476742922393904E-003 -7.979640656267073E-003
 -1.263026983295655E-002 -1.826709190868895E-002 -2.441396652989334E-002
 -3.056244072773302E-002 -3.622807327755116E-002 -4.107753596790794E-002
 -4.495244726653555E-002 -4.790767994332594E-002 -5.006842939802218E-002
 -5.160152297946802E-002 -5.266055883330620E-002  0.000000000000000E+000
 -3.282172018590466E-004 -1.033620650049141E-003 -2.198955220658941E-003
 -4.476742922393904E-003 -7.979640656267073E-003 -1.263026983295655E-002
 -1.826709190868895E-002 -2.441396652989334E-002 -3.056244072773302E-002
 -3.622807327755116E-002 -4.107753596790794E-002 -4.495244726653555E-002
 -4.790767994332594E-002 -5.006842939802218E-002 -5.160152297946802E-002
 -5.266055883330620E-002
 -0.107336820150875      -0.209056747514339      -0.242869510026194     
 -0.188294783698793      -0.120955746630036      -6.681697575668416E-002
 -2.506317732790598E-002 -5.075760160670509E-003  8.967299483011029E-004
 -3.325354632351750E-003 -1.403422788278558E-002 -2.856163901630862E-002
 -4.211014276090915E-002 -5.394073599227361E-002 -6.276228086389653E-002
 -6.789676101510163E-002 -0.123006927002098      -0.245473304266128     
 -0.293425726283408      -0.231437174615491      -0.139191637320329     
 -5.616265590712093E-002  1.076772246630183E-002  4.643419806116912E-002
  5.970285251063231E-002  5.624545885614327E-002  4.192917734730928E-002
  2.154612326042316E-002  2.111691539296100E-003 -1.453469439316827E-002
 -2.646581323867248E-002 -3.295501465952487E-002 -0.116959102989476     
 -0.234317863433131      -0.276604828163168      -0.202589889966165     
 -9.008133768676811E-002  1.864950583149085E-002  0.110819081799161     
  0.165622178898860       0.190689044116923       0.192646484824360     
  0.179320054481698       0.157714561779364       0.136802857308436     
  0.119305738423572       0.107167125017504       0.100797338876283     
 -9.280900743458706E-002 -0.185052738397625      -0.202835472262574     
 -0.100702501306943       4.274193662772669E-002  0.184282715104548     
  0.308497853100995       0.390132881978826       0.434897672436091     
  0.449710776286801       0.444183043774536       0.427370633761567     
  0.409754355282447       0.394487536159369       0.383740113478796     
  0.378157396695833      -4.708864735671169E-002 -9.087924767448882E-002
 -6.162288578716170E-002  9.156264847887569E-002  0.287410984985486     
  0.480320022807950       0.652696470730100       0.775683811176745     
  0.853407605159911       0.892782063677038       0.904791211326909     
  0.900033869024503       0.890359833751208       0.879900629891222     
  0.871914196592877       0.867726930785258       2.703392642411935E-002
  6.227536586088241E-002  0.168087278475694       0.403192725062180     
  0.682641508161492       0.956795569520684        1.20466573002215     
   1.39298899381676        1.52419785683541        1.60486494749640     
   1.64695720812136        1.66262115664140        1.66597173260119     
   1.66328682534551        1.65969618964534        1.65758862184674     
  0.138055934079911       0.291988647465701       0.512430531235727     
  0.869169495388144        1.27296173129982        1.66857587436460     
   2.02983219355867        2.31701395299143        2.52970421617971     
   2.67344748391637        2.76121073081035        2.80755565935790     
   2.83038313977940        2.83932432882433        2.84216028226807     
   2.84294907825500       0.293062718524893       0.612884258518742     
  0.992926376535871        1.51771752610254        2.09340340415477     
   2.65761614205568        3.17696951045474        3.60277744739937     
   3.93010513830296        4.16264930966410        4.31468308867683     
   4.40433410106240        4.45478420448680        4.48016886608971     
   4.49191707305056        4.49661289612196       0.491887728756666     
   1.02451297669611        1.60846121821957        2.34642902766554     
   3.13990383522277        3.91804630641259        4.63846037480823     
   5.24132404703874        5.71575348310466        6.06291578911190     
   6.29859336277068        6.44523145407914        6.53233032225511     
   6.57953546266559        6.60300838112622        6.61278736333214     
  0.719367215062018        1.49533192536675        2.31163413436463     
   3.29117296576107        4.33085165843330        5.35064690554822     
   6.29829782341631        7.10198462794239        7.74439856919422     
   8.22385879401604        8.55746705773009        8.77189594916176     
   8.90314587023772        8.97682690207914        9.01455372791872     
   9.03050985948970       0.942263203638190        1.95633995866787     
   2.99943832986492        4.21404231483204        5.49232654251883     
   6.74537317112322        7.91192605056836        8.90956666105342     
   9.71579441481900        10.3264592366557        10.7593099208333     
   11.0440302736224        11.2220184398486        11.3242033681050     
   11.3774630643166        11.4002047822292        1.11961709636468     
   2.32247112693119        3.54493240853867        4.94525362947748     
   6.41016963348529        7.84315004252414        9.17679495612353     
   10.3222494187832        11.2554247095927        11.9712953511331     
   12.4872343560013        12.8334008438279        13.0538935190100     
   13.1829090379635        13.2511988914369        13.2806370506367     
   1.22213476090080        2.53271090413271        3.85664397348007     
   5.36165871257329        6.92764131832835        8.45212514381868     
   9.86568955191358        11.0794977884391        12.0740487271855     
   12.8469740627803        13.4145581796966        13.8037105421300     